LAMMPS (7 Feb 2024 - Update 1)
OMP_NUM_THREADS environment is not set. Defaulting to 1 thread. (src/comm.cpp:98)
  using 1 OpenMP thread(s) per MPI task
# 1) Initialization
units lj
dimension 3
atom_style atomic
boundary p p p

# 2) System definition
region simbox block 0 7.93701 0 7.93701 0 7.93701
create_box 1 simbox
Created orthogonal box = (0 0 0) to (7.93701 7.93701 7.93701)
  1 by 1 by 1 MPI processor grid
create_atoms 1 random 200 34134 simbox overlap 0.3
Created 200 atoms
  using lattice units in orthogonal box = (0 0 0) to (7.93701 7.93701 7.93701)
  create_atoms CPU = 0.001 seconds

# 3) Settings
mass 1 1.0
pair_style lj/cut 1.122
pair_coeff 1 1 1.0 1.0
pair_modify shift yes

# 4) Monitoring
thermo 10
thermo_style custom step temp etotal pe ke

# 5) Minimizer: Pre-run phase, just to find a non-overlapping state
minimize 1.0e-6 1.0e-6 1000 10000
Generated 0 of 0 mixed pair_coeff terms from geometric mixing rule
Neighbor list info ...
  update: every = 1 steps, delay = 0 steps, check = yes
  max neighbors/atom: 2000, page size: 100000
  master list distance cutoff = 1.422
  ghost atom cutoff = 1.422
  binsize = 0.711, bins = 12 12 12
  1 neighbor lists, perpetual/occasional/extra = 1 0 0
  (1) pair lj/cut, perpetual
      attributes: half, newton on
      pair build: half/bin/atomonly/newton
      stencil: half/bin/3d
      bin: standard
Per MPI rank memory allocation (min/avg/max) = 4.204 | 4.204 | 4.204 Mbytes
   Step          Temp          TotEng         PotEng         KinEng    
         0   0              66078.845      66078.845      0            
        10   0              5.1994108      5.1994108      0            
        20   0              0.0047017773   0.0047017773   0            
        28   0              1.318757e-06   1.318757e-06   0            
Loop time of 0.00340819 on 1 procs for 28 steps with 200 atoms

67.1% CPU use with 1 MPI tasks x 1 OpenMP threads

Minimization stats:
  Stopping criterion = quadratic factors are zero
  Energy initial, next-to-last, final = 
      66078.8453147267 1.31875703664464e-06 1.31875703664464e-06
  Force two-norm initial, final = 2.8175673e+08 0.25732506
  Force max component initial, final = 1.1632173e+08 0.097235582
  Final line search alpha, max atom move = 0.125 0.012154448
  Iterations, force evaluations = 28 66

MPI task timing breakdown:
Section |  min time  |  avg time  |  max time  |%varavg| %total
---------------------------------------------------------------
Pair    | 0.00070798 | 0.00070798 | 0.00070798 |   0.0 | 20.77
Neigh   | 0.001145   | 0.001145   | 0.001145   |   0.0 | 33.60
Comm    | 0.00060713 | 0.00060713 | 0.00060713 |   0.0 | 17.81
Output  | 2.9123e-05 | 2.9123e-05 | 2.9123e-05 |   0.0 |  0.85
Modify  | 0          | 0          | 0          |   0.0 |  0.00
Other   |            | 0.0009189  |            |       | 26.96

Nlocal:            200 ave         200 max         200 min
Histogram: 1 0 0 0 0 0 0 0 0 0
Nghost:            302 ave         302 max         302 min
Histogram: 1 0 0 0 0 0 0 0 0 0
Neighs:            476 ave         476 max         476 min
Histogram: 1 0 0 0 0 0 0 0 0 0

Total # of neighbors = 476
Ave neighs/atom = 2.38
Neighbor list builds = 11
Dangerous builds = 0

# 6) Now we want to set the velocities according to a Maxwell-Bolztmann. We'll use a thermostat
fix equil all langevin 1.0 1.0 0.1 99999
fix integrate all nve
thermo 100
run 5000
Generated 0 of 0 mixed pair_coeff terms from geometric mixing rule
Per MPI rank memory allocation (min/avg/max) = 3.079 | 3.079 | 3.079 Mbytes
   Step          Temp          TotEng         PotEng         KinEng    
        28   0              1.318757e-06   1.318757e-06   0            
       100   1.1465762      1.8703862      0.15912123     1.7112649    
       200   0.96308341     1.6239803      0.18657835     1.437402     
       300   0.92699491     1.580146       0.19660612     1.3835399    
       400   1.0296745      1.7592156      0.22242642     1.5367892    
       500   0.93975875     1.6418985      0.23930855     1.4025899    
       600   1.006969       1.6700364      0.16713511     1.5029013    
       700   1.0992346      1.8352489      0.19464123     1.6406077    
       800   0.89609914     1.5131497      0.17572175     1.337428     
       900   0.97214352     1.5977131      0.14678886     1.4509242    
      1000   0.99961429     1.6450056      0.15308129     1.4919243    
      1100   0.95535346     1.6191201      0.19325501     1.425865     
      1200   1.1078224      1.8364024      0.18297747     1.6534249    
      1300   0.936235       1.5408155      0.14348479     1.3973307    
      1400   0.99441808     1.6584746      0.17430559     1.484169     
      1500   1.0245628      1.7787772      0.24961722     1.52916      
      1600   0.98890027     1.6242529      0.14831921     1.4759336    
      1700   0.94396939     1.5930015      0.18412721     1.4088743    
      1800   1.0539002      1.7046793      0.13173326     1.572946     
      1900   0.98053918     1.6470015      0.1835468      1.4634547    
      2000   1.1122955      1.8565966      0.19649565     1.660101     
      2100   0.99504777     1.6717963      0.18668748     1.4851088    
      2200   1.1263238      1.82922        0.1481817      1.6810383    
      2300   0.99633792     1.6322749      0.14524059     1.4870344    
      2400   1.0488459      1.7361632      0.17076065     1.5654025    
      2500   0.98793125     1.6242617      0.14977433     1.4744874    
      2600   0.9670664      1.644957       0.20161037     1.4433466    
      2700   1.0237229      1.7007252      0.17281873     1.5279064    
      2800   0.94875507     1.5634322      0.14741529     1.4160169    
      2900   1.1395936      1.917551       0.21670752     1.7008435    
      3000   1.0869767      1.8981779      0.2758652      1.6223127    
      3100   1.0673176      1.7681257      0.17515414     1.5929715    
      3200   0.97815307     1.6597293      0.19983589     1.4598935    
      3300   1.0484752      1.678263       0.11341378     1.5648492    
      3400   0.98876657     1.7041966      0.22846246     1.4757341    
      3500   1.0532188      1.7591599      0.18723078     1.5719291    
      3600   1.012491       1.6887622      0.17761941     1.5111427    
      3700   1.0723358      1.7939141      0.19345294     1.6004611    
      3800   0.91584986     1.5360675      0.16916161     1.3669059    
      3900   0.98251023     1.5878111      0.12141462     1.4663965    
      4000   1.0894056      1.8187938      0.19285597     1.6259379    
      4100   1.0145997      1.6698051      0.15551509     1.51429      
      4200   0.98285204     1.6569813      0.19007466     1.4669067    
      4300   1.0908376      1.7435493      0.11547417     1.6280751    
      4400   0.98583382     1.6276577      0.15630076     1.471357     
      4500   0.91660009     1.5664546      0.19842894     1.3680256    
      4600   1.0238148      1.6726172      0.14457364     1.5280435    
      4700   1.0580068      1.7489575      0.16988233     1.5790752    
      4800   1.0653318      1.7554331      0.16542533     1.5900077    
      4900   1.048655       1.7585957      0.19347818     1.5651175    
      5000   1.0263979      1.736827       0.20492817     1.5318989    
      5028   1.0358053      1.7510602      0.20512074     1.5459394    
Loop time of 0.247521 on 1 procs for 5000 steps with 200 atoms

Performance: 8726525.596 tau/day, 20200.291 timesteps/s, 4.040 Matom-step/s
76.7% CPU use with 1 MPI tasks x 1 OpenMP threads

MPI task timing breakdown:
Section |  min time  |  avg time  |  max time  |%varavg| %total
---------------------------------------------------------------
Pair    | 0.031352   | 0.031352   | 0.031352   |   0.0 | 12.67
Neigh   | 0.05087    | 0.05087    | 0.05087    |   0.0 | 20.55
Comm    | 0.030695   | 0.030695   | 0.030695   |   0.0 | 12.40
Output  | 0.00080792 | 0.00080792 | 0.00080792 |   0.0 |  0.33
Modify  | 0.10171    | 0.10171    | 0.10171    |   0.0 | 41.09
Other   |            | 0.03208    |            |       | 12.96

Nlocal:            200 ave         200 max         200 min
Histogram: 1 0 0 0 0 0 0 0 0 0
Nghost:            306 ave         306 max         306 min
Histogram: 1 0 0 0 0 0 0 0 0 0
Neighs:            404 ave         404 max         404 min
Histogram: 1 0 0 0 0 0 0 0 0 0

Total # of neighbors = 404
Ave neighs/atom = 2.02
Neighbor list builds = 549
Dangerous builds = 0

# 6) Now we can turn off the thermostat
unfix equil
unfix integrate

# 4) Monitoring
thermo 50
thermo_style custom step temp etotal pe ke
dump mydmp all atom 100 dump.lammpstrj
variable t      equal time      # Tempo simulato
variable T      equal temp      # Temperatura
variable V      equal pe        # Energia Potenziale
variable K      equal ke        # Energia Cinetica
variable E      equal etotal    # Energia Totale

# 2. Usiamo fix ave/time per scrivere su file
# Sintassi: fix ID all ave/time Nevery Nrepeat Nfreq v_nome1 v_nome2 ... file nomefile.dat
# Nevery = 1    -> Campiona ogni step
# Nrepeat = 1   -> Non fa media (prende il valore istantaneo)
# Nfreq = 100   -> Scrive su file ogni 100 step

# 5) Finally, run the MD simulation
reset_timestep 0
fix myEnergySave all ave/time 1 1 10 v_t v_T v_V v_K v_E file energy_data.dat
compute myRDF all rdf 100
fix calcRDF all ave/time 100 500 50000 c_myRDF[*] file rdf_data.dat mode vector
fix mynve all nve
timestep 0.0005
run 1000000
Generated 0 of 0 mixed pair_coeff terms from geometric mixing rule
Neighbor list info ...
  update: every = 1 steps, delay = 0 steps, check = yes
  max neighbors/atom: 2000, page size: 100000
  master list distance cutoff = 1.422
  ghost atom cutoff = 1.422
  binsize = 0.711, bins = 12 12 12
  2 neighbor lists, perpetual/occasional/extra = 1 1 0
  (1) pair lj/cut, perpetual
      attributes: half, newton on
      pair build: half/bin/atomonly/newton
      stencil: half/bin/3d
      bin: standard
  (2) compute rdf, occasional, copy from (1)
      attributes: half, newton on
      pair build: copy
      stencil: none
      bin: none
Per MPI rank memory allocation (min/avg/max) = 3.079 | 3.079 | 3.079 Mbytes
   Step          Temp          TotEng         PotEng         KinEng    
         0   1.0358053      1.7510602      0.20512074     1.5459394    
        50   1.0264604      1.7510605      0.21906833     1.5319922    
       100   1.0402528      1.7510603      0.1984829      1.5525774    
       150   1.0531367      1.7510608      0.17925422     1.5718066    
       200   1.0675763      1.7510602      0.15770257     1.5933576    
       250   1.0723361      1.7510599      0.15059826     1.6004616    
       300   1.0697925      1.7510599      0.15439462     1.5966653    
       350   1.067557       1.7510602      0.1577314      1.5933288    
       400   1.0688712      1.7510595      0.15576931     1.5952902    
       450   1.0697206      1.7510603      0.15450224     1.596558     
       500   1.0721119      1.7510574      0.15093038     1.600127     
       550   1.0463501      1.7510604      0.18938297     1.5616775    
       600   1.04971        1.7510589      0.18436673     1.5666921    
       650   1.0630972      1.7510588      0.16438625     1.5866726    
       700   1.0695005      1.7510596      0.15483        1.5962296    
       750   1.0789136      1.7510559      0.14077736     1.6102786    
       800   1.0472611      1.7510614      0.18802409     1.5630373    
       850   1.0523784      1.7510584      0.18038362     1.5706748    
       900   1.061975       1.7510567      0.16605904     1.5849977    
       950   1.0424609      1.7510595      0.19518662     1.5558729    
      1000   1.0466163      1.7510577      0.18898281     1.5620749    
      1050   1.0526263      1.7510576      0.18001284     1.5710447    
      1100   1.0537618      1.7510596      0.17832011     1.5727394    
      1150   1.0740409      1.7510578      0.14805171     1.603006     
      1200   1.0728552      1.7510576      0.14982123     1.6012364    
      1250   1.056076       1.7510591      0.17486572     1.5761934    
      1300   1.0527463      1.7510578      0.17983395     1.5712239    
      1350   1.0482909      1.7510587      0.18648457     1.5645741    
      1400   1.0603134      1.7510584      0.16854071     1.5825177    
      1450   1.0838626      1.7510567      0.13339182     1.6176649    
      1500   1.0832136      1.7510587      0.13436239     1.6166963    
      1550   1.0784059      1.7510594      0.14153869     1.6095207    
      1600   1.0812796      1.7510588      0.13724904     1.6138098    
      1650   1.0827868      1.7510591      0.13499972     1.6160594    
      1700   1.0801613      1.7510593      0.13891852     1.6121408    
      1750   1.0790929      1.7510595      0.14051336     1.6105461    
      1800   1.082038       1.7510588      0.13611701     1.6149418    
      1850   1.0766274      1.7510585      0.14419207     1.6068664    
      1900   1.0585571      1.7510589      0.17116246     1.5798964    
      1950   1.0393198      1.7510593      0.19987445     1.5511849    
      2000   1.0321484      1.7510591      0.21057757     1.5404815    
      2050   1.0332579      1.7510583      0.20892097     1.5421373    
      2100   1.0340883      1.7510588      0.20768204     1.5433768    
      2150   1.0472016      1.7510579      0.18810949     1.5629484    
      2200   1.0645512      1.7510589      0.1622162      1.5888427    
      2250   1.0755593      1.7510564      0.14578416     1.6052722    
      2300   1.0573926      1.7510595      0.17290105     1.5781585    
      2350   1.0601767      1.7510581      0.16874433     1.5823138    
      2400   1.0604151      1.7510572      0.16838761     1.5826696    
      2450   1.0375996      1.7510597      0.20244225     1.5486174    
      2500   1.0381244      1.7510588      0.20165814     1.5494007    
      2550   1.0482223      1.751057       0.18658527     1.5644717    
      2600   1.0376667      1.7510591      0.20234151     1.5487176    
      2650   1.0479691      1.75106        0.1869661      1.5640939    
      2700   1.0837092      1.7510577      0.13362164     1.617436     
      2750   1.0910972      1.7510587      0.12259612     1.6284625    
      2800   1.073832       1.7510603      0.14836602     1.6026943    
      2850   1.0699061      1.7510596      0.15422483     1.5968348    
      2900   1.0734527      1.7510595      0.14893144     1.6021281    
      2950   1.0727526      1.7510599      0.14997665     1.6010833    
      3000   1.0722679      1.7510579      0.15069811     1.6003598    
      3050   1.0581703      1.7510608      0.17174166     1.5793192    
      3100   1.0694003      1.7510589      0.15497894     1.59608      
      3150   1.0674554      1.7510594      0.15788224     1.5931772    
      3200   1.0608389      1.7510604      0.16775829     1.5833021    
      3250   1.0638728      1.7510597      0.16322952     1.5878302    
      3300   1.0587274      1.7510591      0.17090845     1.5801507    
      3350   1.034294       1.7510582      0.20737445     1.5436838    
      3400   0.99508669     1.7510616      0.26589467     1.4851669    
      3450   1.0045333      1.7510591      0.25179313     1.4992659    
      3500   1.0222996      1.7510581      0.22527588     1.5257822    
      3550   1.0333463      1.7510599      0.20879058     1.5422693    
      3600   1.0578481      1.7510568      0.17221855     1.5788383    
      3650   1.0497964      1.7510599      0.18423877     1.5668211    
      3700   1.0552805      1.7510589      0.17605273     1.5750062    
      3750   1.056976       1.7510588      0.17352209     1.5775367    
      3800   1.0478763      1.7510593      0.18710394     1.5639553    
      3850   1.0359671      1.7510593      0.20487841     1.5461809    
      3900   1.0319499      1.7510596      0.21087447     1.5401852    
      3950   1.0444949      1.7510591      0.1921505      1.5589086    
      4000   1.0560714      1.7510587      0.1748722      1.5761865    
      4050   1.0449973      1.7510593      0.19140087     1.5596585    
      4100   1.0311686      1.7510598      0.21204063     1.5390191    
      4150   1.0327878      1.7510586      0.20962276     1.5414358    
      4200   1.0292269      1.7510581      0.21493704     1.5361211    
      4250   1.0402897      1.7510579      0.19842551     1.5526324    
      4300   1.05972        1.7510587      0.16942662     1.581632     
      4350   1.0681977      1.7510601      0.156775       1.5942851    
      4400   1.0822155      1.7510599      0.13585331     1.6152066    
      4450   1.0968671      1.7510592      0.11398513     1.6370741    
      4500   1.0941139      1.7510587      0.11809373     1.632965     
      4550   1.0670394      1.7510593      0.15850297     1.5925563    
      4600   1.0379954      1.7510602      0.20185202     1.5492082    
      4650   1.0334578      1.7510596      0.20862375     1.5424358    
      4700   1.0437891      1.7510575      0.1932023      1.5578552    
      4750   1.0344516      1.7510597      0.20714071     1.543919     
      4800   1.0405992      1.7510587      0.19796439     1.5530943    
      4850   1.060936       1.7510576      0.16761063     1.5834469    
      4900   1.0617765      1.7510594      0.16635804     1.5847014    
      4950   1.0565329      1.7510588      0.17418345     1.5768753    
      5000   1.0472575      1.7510605      0.18802861     1.5630319    
      5050   1.0548977      1.7510583      0.17662345     1.5744349    
      5100   1.0493289      1.7510583      0.18493498     1.5661233    
      5150   1.0314097      1.7510599      0.21168086     1.539379     
      5200   1.0309814      1.7510575      0.21231781     1.5387397    
      5250   1.0287954      1.7510586      0.21558149     1.5354771    
      5300   1.0334764      1.7510579      0.20859448     1.5424635    
      5350   1.0298291      1.7510586      0.21403869     1.5370199    
      5400   1.0399944      1.7510597      0.1988681      1.5521916    
      5450   1.067042       1.7510585      0.15849826     1.5925602    
      5500   1.0737367      1.7510584      0.14850635     1.6025521    
      5550   1.0618055      1.75106        0.16631519     1.5847448    
      5600   1.0605236      1.7510582      0.16822669     1.5828315    
      5650   1.0499956      1.7510587      0.18394027     1.5671185    
      5700   1.0439041      1.7510608      0.19303402     1.5580268    
      5750   1.0702399      1.7510588      0.15372574     1.597333     
      5800   1.0846262      1.7510594      0.13225476     1.6188046    
      5850   1.0901281      1.7510594      0.1240432      1.6270162    
      5900   1.0893185      1.7510599      0.12525206     1.6258078    
      5950   1.0832805      1.7510584      0.13426223     1.6167962    
      6000   1.0510018      1.7510588      0.18243858     1.5686202    
      6050   1.017579       1.7510584      0.23232173     1.5187367    
      6100   0.99629382     1.7510591      0.26409053     1.4869685    
      6150   1.0162448      1.7510569      0.23431163     1.5167453    
      6200   1.0494074      1.7510561      0.1848156      1.5662405    
      6250   1.0431397      1.7510577      0.19417168     1.556886     
      6300   1.030259       1.7510599      0.21339835     1.5376615    
      6350   1.0464984      1.7510565      0.18915764     1.5618988    
      6400   1.0335754      1.7510584      0.20844713     1.5426113    
      6450   1.0374918      1.7510581      0.20260167     1.5484565    
      6500   1.0615918      1.7510588      0.16663295     1.5844258    
      6550   1.0740729      1.7510571      0.14800331     1.6030538    
      6600   1.0506735      1.7510579      0.18292774     1.5681301    
      6650   1.0276793      1.7510603      0.21724895     1.5338113    
      6700   1.0463718      1.7510573      0.18934728     1.56171      
      6750   1.0560879      1.7510587      0.17484744     1.5762112    
      6800   1.0637882      1.7510567      0.1633529      1.5877038    
      6850   1.0457074      1.7510581      0.19033975     1.5607184    
      6900   1.0324189      1.7510588      0.21017363     1.5408852    
      6950   1.0421179      1.7510555      0.19569457     1.555361     
      7000   1.0206445      1.7510588      0.22774691     1.5233119    
      7050   1.0231653      1.7510581      0.22398381     1.5270742    
      7100   1.0474985      1.751058       0.18766645     1.5633915    
      7150   1.0659718      1.7510579      0.16009502     1.5909629    
      7200   1.0679076      1.7510572      0.15720521     1.593852     
      7250   1.0489804      1.7510588      0.18545563     1.5656032    
      7300   1.0397736      1.7510578      0.19919563     1.5518621    
      7350   1.0376064      1.7510582      0.20243069     1.5486276    
      7400   1.0439285      1.751057       0.19299374     1.5580633    
      7450   1.0443996      1.7510582      0.19229175     1.5587664    
      7500   1.0489356      1.7510576      0.18552133     1.5655363    
      7550   1.0444724      1.7510583      0.19218315     1.5588751    
      7600   1.0401334      1.7510593      0.19866012     1.5523992    
      7650   1.0524264      1.7510582      0.18031176     1.5707464    
      7700   1.0541455      1.7510577      0.17774559     1.5733121    
      7750   1.0369936      1.7510605      0.20334753     1.547713     
      7800   1.0487982      1.7510587      0.18572745     1.5653312    
      7850   1.0600398      1.7510582      0.16894871     1.5821095    
      7900   1.0496833      1.7510585      0.18440617     1.5666523    
      7950   1.0342197      1.7510586      0.20748572     1.5435728    
      8000   1.0322752      1.7510584      0.21038758     1.5406708    
      8050   1.0362408      1.7510578      0.20446841     1.5465894    
      8100   1.0456156      1.7510593      0.19047808     1.5605812    
      8150   1.0659987      1.7510564      0.16005334     1.5910031    
      8200   1.0617686      1.7510601      0.16637044     1.5846896    
      8250   1.0651646      1.7510564      0.16129821     1.5897581    
      8300   1.0308681      1.7510602      0.21248951     1.5385707    
      8350   1.0139325      1.7510578      0.23776344     1.5132943    
      8400   0.99509493     1.7510608      0.26588162     1.4851792    
      8450   1.0122175      1.7510575      0.24032286     1.5107346    
      8500   1.0169187      1.7510595      0.23330843     1.5177511    
      8550   1.046354       1.7510589      0.18937552     1.5616833    
      8600   1.0788403      1.7510571      0.14088799     1.6101691    
      8650   1.061749       1.7510591      0.16639864     1.5846604    
      8700   1.0182237      1.7510586      0.2313598      1.5196988    
      8750   0.99822537     1.7510595      0.26120813     1.4898514    
      8800   1.0277634      1.7510601      0.21712322     1.5339369    
      8850   1.0668416      1.7510593      0.15879826     1.592261     
      8900   1.084214       1.7510601      0.13287063     1.6181894    
      8950   1.0788975      1.7510606      0.14080605     1.6102546    
      9000   1.0673328      1.7510608      0.15806661     1.5929941    
      9050   1.0548833      1.7510608      0.17664738     1.5744134    
      9100   1.0428484      1.7510612      0.19461002     1.5564512    
      9150   1.0419235      1.7510604      0.19598958     1.5550708    
      9200   1.0350511      1.7510586      0.20624489     1.5448137    
      9250   1.0006543      1.7510603      0.25758382     1.4934765    
      9300   0.99046617     1.7510616      0.27279086     1.4782708    
      9350   1.0344012      1.7510596      0.20721575     1.5438438    
      9400   1.0692275      1.7510582      0.15523609     1.5958221    
      9450   1.05742        1.7510593      0.17285984     1.5781994    
      9500   1.0315672      1.7510625      0.2114485      1.539614     
      9550   1.0465112      1.751059       0.18914096     1.561918     
      9600   1.0375357      1.7510587      0.20253661     1.5485221    
      9650   1.0269416      1.7510586      0.21834822     1.5327104    
      9700   1.0255928      1.7510593      0.22036199     1.5306973    
      9750   1.0241201      1.7510601      0.22256083     1.5284992    
      9800   1.0483034      1.7510588      0.18646603     1.5645928    
      9850   1.0648582      1.7510586      0.16175766     1.5893009    
      9900   1.0578116      1.7510595      0.17227575     1.5787838    
      9950   1.0463996      1.7510583      0.18930695     1.5617514    
     10000   1.0207542      1.7510604      0.22758475     1.5234756    
     10050   1.0312107      1.7510603      0.21197832     1.5390819    
     10100   1.0690494      1.751056       0.15549977     1.5955562    
     10150   1.0425674      1.7510607      0.19502878     1.5560319    
     10200   1.0442995      1.751058       0.19244098     1.5586171    
     10250   1.0491284      1.7510581      0.18523389     1.5658242    
     10300   1.0303369      1.7510606      0.21328284     1.5377778    
     10350   1.0222017      1.7510592      0.22542321     1.525636     
     10400   1.016369       1.7510597      0.23412898     1.5169307    
     10450   1.0133923      1.7510608      0.23857283     1.5124879    
     10500   1.0265216      1.7510607      0.2189772      1.5320835    
     10550   1.0527954      1.7510599      0.17976283     1.5712971    
     10600   1.0696291      1.7510607      0.15463933     1.5964214    
     10650   1.0779586      1.7510593      0.14220611     1.6088531    
     10700   1.0677359      1.7510615      0.15746575     1.5935958    
     10750   1.0644168      1.7510594      0.16241729     1.5886421    
     10800   1.0380989      1.7510618      0.20169917     1.5493626    
     10850   1.0416371      1.7510585      0.19641515     1.5546434    
     10900   1.0295873      1.751058       0.214399       1.536659     
     10950   0.994267       1.7510623      0.26711876     1.4839435    
     11000   1.0060033      1.7510582      0.24959822     1.5014599    
     11050   1.0098298      1.751062       0.24389103     1.507171     
     11100   1.0433265      1.751059       0.1938942      1.5571648    
     11150   1.0562891      1.7510588      0.17454741     1.5765114    
     11200   1.0387197      1.7510617      0.20077244     1.5502892    
     11250   1.0397615      1.7510616      0.19921761     1.551844     
     11300   1.0557542      1.7510598      0.17534655     1.5757132    
     11350   1.0522196      1.7510598      0.180622       1.5704378    
     11400   1.0399336      1.7510609      0.19896        1.5521009    
     11450   1.0440513      1.7510585      0.19281184     1.5582466    
     11500   1.0365378      1.7510606      0.20402791     1.5470326    
     11550   1.0506342      1.7510591      0.1829876      1.5680715    
     11600   1.0601787      1.7510593      0.1687426      1.5823167    
     11650   1.0522128      1.7510611      0.18063346     1.5704276    
     11700   1.0553594      1.7510602      0.17593641     1.5751238    
     11750   1.0574888      1.7510604      0.17275846     1.578302     
     11800   1.058759       1.7510605      0.17086271     1.5801977    
     11850   1.0640825      1.7510602      0.16291708     1.5881431    
     11900   1.0622111      1.7510588      0.1657088      1.58535      
     11950   1.0420283      1.7510604      0.19583321     1.5552272    
     12000   1.0472905      1.75106        0.18797903     1.563081     
     12050   1.0642084      1.7510596      0.16272858     1.588331     
     12100   1.0702595      1.75106        0.15369762     1.5973623    
     12150   1.0735706      1.7510605      0.14875639     1.6023041    
     12200   1.0732011      1.7510594      0.14930681     1.6017526    
     12250   1.0516727      1.7510602      0.18143862     1.5696215    
     12300   1.0295424      1.7510599      0.21446795     1.536592     
     12350   1.0289468      1.7510615      0.21535836     1.5357031    
     12400   1.0602742      1.7510582      0.16859894     1.5824593    
     12450   1.0632696      1.7510594      0.16412954     1.5869298    
     12500   1.0437508      1.7510606      0.19326248     1.5577981    
     12550   1.0371538      1.7510603      0.20310831     1.547952     
     12600   1.0501851      1.7510596      0.18365828     1.5674013    
     12650   1.0641171      1.7510591      0.16286437     1.5881948    
     12700   1.0628172      1.7510577      0.16480306     1.5862546    
     12750   1.0322247      1.751059       0.21046353     1.5405954    
     12800   1.0017808      1.7510595      0.25590165     1.4951578    
     12850   1.0065944      1.7510607      0.24871853     1.5023421    
     12900   1.0488176      1.7510571      0.18569684     1.5653602    
     12950   1.0495454      1.7510597      0.18461314     1.5664466    
     13000   1.054582       1.7510585      0.17709491     1.5739636    
     13050   1.0528684      1.7510577      0.17965162     1.5714061    
     13100   1.0167307      1.7510615      0.2335909      1.5174706    
     13150   1.0225795      1.751059       0.2248591      1.5261999    
     13200   1.044005       1.7510587      0.19288135     1.5581774    
     13250   1.0551465      1.7510588      0.17625264     1.5748061    
     13300   1.0419154      1.7510582      0.19599953     1.5550587    
     13350   1.0234631      1.7510602      0.2235415      1.5275187    
     13400   1.0367239      1.751059       0.2037486      1.5473104    
     13450   1.0528931      1.751059       0.17961613     1.5714429    
     13500   1.0631281      1.7510596      0.16434097     1.5867186    
     13550   1.0693946      1.75106        0.15498865     1.5960714    
     13600   1.0725104      1.7510599      0.15033813     1.6007218    
     13650   1.0652354      1.7510584      0.16119454     1.5898639    
     13700   1.0378922      1.7510601      0.20200598     1.5490541    
     13750   1.0401247      1.7510608      0.19867474     1.5523861    
     13800   1.0705359      1.7510578      0.15328297     1.5977749    
     13850   1.0617337      1.7510595      0.1664219      1.5846376    
     13900   1.0493454      1.7510588      0.18491076     1.566148     
     13950   1.039182       1.7510592      0.20008009     1.5509791    
     14000   1.0376735      1.7510593      0.2023316      1.5487277    
     14050   1.0435794      1.7510589      0.1935166      1.5575423    
     14100   1.0557915      1.7510593      0.1752905      1.5757688    
     14150   1.0700563      1.7510573      0.15399823     1.5970591    
     14200   1.0564188      1.7510602      0.17435512     1.5767051    
     14250   1.064503       1.7510593      0.16228864     1.5887707    
     14300   1.0770447      1.7510585      0.14356928     1.6074892    
     14350   1.0669988      1.7510599      0.15856425     1.5924956    
     14400   1.0586149      1.7510602      0.1710775      1.5799827    
     14450   1.0598467      1.7510597      0.16923842     1.5818213    
     14500   1.0537561      1.7510584      0.17832736     1.572731     
     14550   1.026259       1.7510605      0.21936896     1.5316915    
     14600   1.0188142      1.7510584      0.23047823     1.5205802    
     14650   1.0218062      1.7510597      0.2260139      1.5250458    
     14700   1.0523813      1.7510591      0.18038009     1.570679     
     14750   1.0785298      1.7510587      0.14135301     1.6097057    
     14800   1.0779293      1.7510601      0.14225061     1.6088095    
     14850   1.0748734      1.7510606      0.14681196     1.6042486    
     14900   1.0778058      1.7510599      0.14243473     1.6086252    
     14950   1.0732863      1.7510588      0.14917909     1.6018797    
     15000   1.0470682      1.7510603      0.18831099     1.5627493    
     15050   1.0340551      1.7510595      0.20773228     1.5433273    
     15100   1.0282197      1.7510582      0.21644038     1.5346178    
     15150   1.0208436      1.7510595      0.22745044     1.523609     
     15200   1.0249435      1.7510576      0.22132937     1.5297282    
     15250   1.011997       1.7510608      0.24065535     1.5104055    
     15300   1.0264914      1.7510577      0.2190194      1.5320384    
     15350   1.0241074      1.7510612      0.22258089     1.5284803    
     15400   1.0430763      1.7510595      0.19426807     1.5567914    
     15450   1.0519831      1.7510581      0.18097333     1.5700847    
     15500   1.0293988      1.7510609      0.21468316     1.5363778    
     15550   1.0342783      1.7510613      0.2074009      1.5436604    
     15600   1.0646681      1.7510585      0.16204135     1.5890171    
     15650   1.0621068      1.7510601      0.16586575     1.5851943    
     15700   1.0488211      1.751062       0.18569648     1.5653655    
     15750   1.056187       1.7510584      0.17469926     1.5763591    
     15800   1.0320888      1.7510588      0.21066621     1.5403926    
     15850   1.0005867      1.7510626      0.25768696     1.4933756    
     15900   1.0153542      1.7510591      0.23564293     1.5154161    
     15950   1.0308785      1.7510601      0.21247388     1.5385862    
     16000   1.0502547      1.7510594      0.18355423     1.5675052    
     16050   1.0556879      1.7510601      0.17544602     1.5756141    
     16100   1.0575816      1.7510613      0.17262079     1.5784405    
     16150   1.0744131      1.7510592      0.1474976      1.6035616    
     16200   1.0676813      1.7510596      0.15754526     1.5935143    
     16250   1.0445415      1.7510613      0.19208313     1.5589781    
     16300   1.0420527      1.7510603      0.19579661     1.5552637    
     16350   1.0384914      1.7510575      0.20110908     1.5499484    
     16400   1.005293       1.7510629      0.25066308     1.5003998    
     16450   1.0217377      1.751059       0.22611541     1.5249436    
     16500   1.0348964      1.7510599      0.20647709     1.5445828    
     16550   1.0398853      1.7510612      0.19903242     1.5520288    
     16600   1.0547635      1.751061       0.17682643     1.5742345    
     16650   1.0714376      1.7510607      0.15194011     1.5991206    
     16700   1.0794072      1.7510607      0.14004543     1.6110153    
     16750   1.0733035      1.7510597      0.14915418     1.6019055    
     16800   1.0458331      1.7510611      0.19015515     1.5609059    
     16850   1.0281268      1.7510599      0.21658069     1.5344792    
     16900   1.0229527      1.7510601      0.22430324     1.5267568    
     16950   1.0231196      1.7510591      0.22405305     1.527006     
     17000   1.0123915      1.7510593      0.24006503     1.5109942    
     17050   1.0063125      1.7510618      0.2491404      1.5019214    
     17100   1.0372666      1.7510594      0.20293899     1.5481205    
     17150   1.0591794      1.7510595      0.17023415     1.5808253    
     17200   1.0632524      1.7510603      0.16415612     1.5869042    
     17250   1.0712517      1.7510608      0.15221769     1.5988431    
     17300   1.0906105      1.7510593      0.12332315     1.6277361    
     17350   1.0904068      1.7510576      0.12362536     1.6274322    
     17400   1.0514258      1.7510592      0.18180619     1.569253     
     17450   1.0255833      1.7510603      0.22037731     1.530683     
     17500   1.0406479      1.7510583      0.19789132     1.553167     
     17550   1.057483       1.751058       0.17276461     1.5782934    
     17600   1.0595088      1.7510576      0.16974083     1.5813168    
     17650   1.0416569      1.7510587      0.19638582     1.5546729    
     17700   1.0418443      1.7510598      0.19610718     1.5549526    
     17750   1.0693776      1.7510567      0.1550106      1.5960461    
     17800   1.06725        1.7510583      0.15818768     1.5928706    
     17850   1.0621212      1.7510598      0.16584389     1.5852159    
     17900   1.0798859      1.7510575      0.13932781     1.6117297    
     17950   1.0711887      1.7510559      0.1523068      1.5987491    
     18000   1.0135679      1.7510593      0.2383092      1.5127501    
     18050   0.99824253     1.7510572      0.26118026     1.489877     
     18100   1.0174842      1.7510588      0.23246364     1.5185952    
     18150   1.0536354      1.7510561      0.1785053      1.5725508    
     18200   1.0548656      1.7510574      0.17667057     1.5743869    
     18250   1.0434735      1.7510586      0.1936745      1.5573841    
     18300   1.0466586      1.7510567      0.18891878     1.5621379    
     18350   1.0286556      1.7510587      0.21579029     1.5352684    
     18400   1.0248569      1.751058       0.22145906     1.5295989    
     18450   1.0357667      1.751059       0.20517724     1.5458817    
     18500   1.0618166      1.7510587      0.1662974      1.5847613    
     18550   1.0843893      1.7510584      0.13260731     1.6184511    
     18600   1.0831772      1.7510577      0.13441575     1.6166419    
     18650   1.057485       1.7510591      0.17276265     1.5782964    
     18700   1.0468058      1.7510606      0.18870295     1.5623577    
     18750   1.0696925      1.7510591      0.15454306     1.5965161    
     18800   1.0835833      1.7510586      0.13381042     1.6172481    
     18850   1.0719295      1.7510593      0.1512046      1.5998547    
     18900   1.0530941      1.7510601      0.17931716     1.571743     
     18950   1.0567024      1.7510596      0.1739313      1.5771283    
     19000   1.0754627      1.7510596      0.14593155     1.605128     
     19050   1.0873164      1.7510583      0.12823851     1.6228198    
     19100   1.0784006      1.7510592      0.14154634     1.6095128    
     19150   1.0529487      1.7510598      0.17953382     1.571526     
     19200   1.0318388      1.7510616      0.21104223     1.5400194    
     19250   1.0517395      1.751058       0.18133675     1.5697212    
     19300   1.0575872      1.7510596      0.17261067     1.578449     
     19350   1.0618315      1.7510598      0.16627638     1.5847835    
     19400   1.0745712      1.7510591      0.14726157     1.6037975    
     19450   1.074225       1.7510591      0.14777828     1.6032808    
     19500   1.0607505      1.7510603      0.16789016     1.5831702    
     19550   1.0510404      1.751058       0.18238019     1.5686778    
     19600   1.0208279      1.7510599      0.22747432     1.5235856    
     19650   1.0252936      1.7510587      0.22080802     1.5302506    
     19700   1.0513578      1.7510574      0.18190586     1.5691516    
     19750   1.0485688      1.7510568      0.18606782     1.564989     
     19800   1.0184378      1.7510601      0.23104168     1.5200184    
     19850   1.0246462      1.7510583      0.22177389     1.5292844    
     19900   1.0405268      1.7510579      0.19807168     1.5529862    
     19950   1.0513431      1.7510582      0.18192864     1.5691296    
     20000   1.0545949      1.7510575      0.17707453     1.573983     
     20050   1.0389941      1.7510594      0.2003607      1.5506987    
     20100   1.0453483      1.7510591      0.1908767      1.5601824    
     20150   1.0624384      1.7510573      0.165368       1.5856893    
     20200   1.063825       1.7510577      0.16329889     1.5877588    
     20250   1.0615165      1.751059       0.16674562     1.5843133    
     20300   1.0663154      1.751059       0.1595832      1.5914758    
     20350   1.0804375      1.7510575      0.13850453     1.6125529    
     20400   1.0708109      1.7510585      0.15287325     1.5981853    
     20450   1.0562684      1.751059       0.17457845     1.5764805    
     20500   1.0575066      1.7510582      0.17272966     1.5783285    
     20550   1.0593689      1.7510571      0.1699491      1.581108     
     20600   1.0399186      1.7510584      0.19897987     1.5520786    
     20650   1.0296907      1.7510585      0.21424509     1.5368134    
     20700   1.0388507      1.7510567      0.20057199     1.5504847    
     20750   1.0357674      1.7510579      0.20517496     1.5458829    
     20800   1.0366879      1.7510584      0.20380171     1.5472567    
     20850   1.057039       1.7510572      0.17342647     1.5776307    
     20900   1.0738345      1.7510577      0.14835969     1.602698     
     20950   1.0727529      1.7510565      0.1499727      1.6010838    
     21000   1.0366655      1.7510571      0.20383385     1.5472233    
     21050   1.0216834      1.7510564      0.22619396     1.5248624    
     21100   1.0322388      1.7510574      0.21044088     1.5406165    
     21150   1.0427262      1.7510581      0.19478932     1.5562688    
     21200   1.0555549      1.7510573      0.17564163     1.5754156    
     21250   1.0495202      1.7510569      0.18464804     1.5664089    
     21300   1.026195       1.7510583      0.21946219     1.5315961    
     21350   1.0237284      1.7510578      0.2231432      1.5279146    
     21400   1.0359818      1.7510559      0.20485315     1.5462028    
     21450   1.0272953      1.7510584      0.21782021     1.5332382    
     21500   1.0288159      1.7510564      0.21554859     1.5355078    
     21550   1.0159662      1.7510578      0.23472826     1.5163295    
     21600   1.0167269      1.7510581      0.23359325     1.5174649    
     21650   1.0322117      1.7510552      0.2104792      1.540576     
     21700   1.0257436      1.7510586      0.22013624     1.5309224    
     21750   1.0518948      1.7510573      0.18110436     1.5699529    
     21800   1.0740798      1.7510565      0.14799236     1.6030641    
     21850   1.0669026      1.751059       0.15870679     1.5923522    
     21900   1.0720424      1.7510579      0.15103468     1.6000233    
     21950   1.0710575      1.7510576      0.1525043      1.5985533    
     22000   1.0569726      1.7510588      0.17352714     1.5775316    
     22050   1.061311       1.7510575      0.16705086     1.5840066    
     22100   1.0666691      1.7510569      0.15905335     1.5920036    
     22150   1.0612567      1.751059       0.16713343     1.5839256    
     22200   1.0690695      1.7510555      0.15546925     1.5955862    
     22250   1.0507762      1.7510585      0.18277496     1.5682835    
     22300   1.0537324      1.7510575      0.17836187     1.5726956    
     22350   1.0641994      1.7510568      0.16273923     1.5883176    
     22400   1.0626802      1.7510578      0.16500757     1.5860502    
     22450   1.0555631      1.7510578      0.17562989     1.5754279    
     22500   1.0467688      1.7510579      0.18875543     1.5623024    
     22550   1.038965       1.7510571      0.20040174     1.5506553    
     22600   1.0275907      1.7510589      0.21737978     1.5336791    
     22650   1.0521214      1.7510579      0.18076675     1.5702911    
     22700   1.0891786      1.7510564      0.12545736     1.6255991    
     22750   1.0780586      1.751058       0.14205552     1.6090025    
     22800   1.0535675      1.7510596      0.17861014     1.5724495    
     22850   1.0592109      1.7510588      0.17018652     1.5808722    
     22900   1.0698146      1.751059       0.1543606      1.5966983    
     22950   1.0735594      1.7510587      0.14877129     1.6022874    
     23000   1.0654067      1.7510592      0.16093979     1.5901194    
     23050   1.0511651      1.7510585      0.18219458     1.5688639    
     23100   1.0363684      1.7510594      0.20427959     1.5467798    
     23150   1.0439407      1.7510591      0.19297755     1.5580816    
     23200   1.0677539      1.7510597      0.15743701     1.5936227    
     23250   1.0969562      1.7510578      0.11385062     1.6372072    
     23300   1.091327       1.7510599      0.12225437     1.6288055    
     23350   1.0829183      1.7510605      0.13480493     1.6162556    
     23400   1.0896863      1.7510586      0.12470191     1.6263567    
     23450   1.0737029      1.7510575      0.14855596     1.6025016    
     23500   1.0399905      1.7510608      0.19887506     1.5521857    
     23550   1.0443306      1.7510581      0.1923946      1.5586635    
     23600   1.0441717      1.7510571      0.19263084     1.5584262    
     23650   1.0324228      1.7510592      0.21016813     1.5408911    
     23700   1.0374509      1.7510571      0.20266161     1.5483955    
     23750   1.022311       1.7510584      0.22525925     1.5257992    
     23800   1.0150776      1.7510586      0.23605538     1.5150033    
     23850   1.0312687      1.7510565      0.21188801     1.5391685    
     23900   1.0396303      1.7510592      0.19941096     1.5516482    
     23950   1.0670953      1.751056       0.15841625     1.5926398    
     24000   1.0635016      1.7510572      0.163781       1.5872762    
     24050   1.0393643      1.7510596      0.1998084      1.5512511    
     24100   1.0468517      1.7510581      0.18863185     1.5624262    
     24150   1.0653658      1.751057       0.16099852     1.5900585    
     24200   1.0736432      1.7510581      0.14864554     1.6024125    
     24250   1.078327       1.7510569      0.14165374     1.6094031    
     24300   1.0667423      1.7510582      0.15894525     1.592113     
     24350   1.0696096      1.7510583      0.15466598     1.5963923    
     24400   1.0797954      1.7510558      0.13946119     1.6115946    
     24450   1.0607529      1.751058       0.16788435     1.5831736    
     24500   1.0553411      1.7510574      0.17596079     1.5750966    
     24550   1.050798       1.7510564      0.18274043     1.568316     
     24600   1.0449163      1.7510591      0.19152159     1.5595375    
     24650   1.0707186      1.7510563      0.15300879     1.5980475    
     24700   1.0721877      1.7510577      0.15081765     1.6002401    
     24750   1.0730516      1.7510575      0.14952805     1.6015294    
     24800   1.0704647      1.7510569      0.15338835     1.5976685    
     24850   1.0530235      1.7510572      0.17941966     1.5716375    
     24900   1.046506       1.7510593      0.18914911     1.5619102    
     24950   1.0736154      1.7510555      0.14868456     1.6023709    
     25000   1.0695138      1.751057       0.15480766     1.5962494    
     25050   1.0571397      1.7510592      0.17327814     1.577781     
     25100   1.0748853      1.7510565      0.14679024     1.6042663    
     25150   1.0739652      1.7510548      0.14816167     1.6028931    
     25200   1.0363438      1.7510583      0.20431512     1.5467432    
     25250   1.0277554      1.7510556      0.21713073     1.5339249    
     25300   1.0210339      1.751058       0.22716479     1.5238932    
     25350   1.0448297      1.7510555      0.19164722     1.5594083    
     25400   1.0604018      1.7510562      0.1684065      1.5826497    
     25450   1.0565611      1.7510566      0.1741392      1.5769174    
     25500   1.0476614      1.751058       0.18742328     1.5636347    
     25550   1.0427692      1.7510561      0.19472306     1.556333     
     25600   1.0326319      1.7510578      0.20985469     1.5412032    
     25650   1.0437297      1.7510572      0.19329073     1.5577665    
     25700   1.0580748      1.7510572      0.1718805      1.5791767    
     25750   1.0692801      1.751057       0.15515639     1.5959006    
     25800   1.069458       1.7510561      0.15489003     1.596166     
     25850   1.0521019      1.7510597      0.18079768     1.5702621    
     25900   1.0650014      1.7510575      0.16154302     1.5895145    
     25950   1.0782353      1.7510567      0.14179053     1.6092662    
     26000   1.068461       1.7510573      0.15637923     1.594678     
     26050   1.059224       1.7510585      0.17016661     1.5808919    
     26100   1.072502       1.751056       0.15034685     1.6007092    
     26150   1.0674779      1.751058       0.15784729     1.5932107    
     26200   1.0735086      1.7510572      0.14884558     1.6022116    
     26250   1.08043        1.7510568      0.13851505     1.6125417    
     26300   1.0707248      1.7510571      0.15300032     1.5980568    
     26350   1.0657625      1.7510576      0.16040711     1.5906505    
     26400   1.0689945      1.751056       0.15558169     1.5954743    
     26450   1.0498498      1.7510573      0.18415649     1.5669008    
     26500   1.0335146      1.7510569      0.2085364      1.5425205    
     26550   1.0312269      1.7510565      0.21195046     1.5391061    
     26600   1.038999       1.751058       0.20035201     1.550706     
     26650   1.0633386      1.7510552      0.16402238     1.5870328    
     26700   1.0641033      1.7510574      0.16288321     1.5881742    
     26750   1.0638256      1.7510568      0.16329707     1.5877597    
     26800   1.0641097      1.7510563      0.16287252     1.5881838    
     26850   1.057514       1.7510578      0.17271811     1.5783397    
     26900   1.065206       1.7510558      0.16123585     1.58982      
     26950   1.0588761      1.7510566      0.17068405     1.5803726    
     27000   1.0444885      1.7510565      0.19215738     1.5588991    
     27050   1.038521       1.7510579      0.20106522     1.5499927    
     27100   1.0543272      1.7510558      0.17747245     1.5735834    
     27150   1.054417       1.7510578      0.1773405      1.5737173    
     27200   1.067305       1.7510579      0.15810525     1.5929527    
     27250   1.0902651      1.751057       0.12383626     1.6272207    
     27300   1.0938002      1.7510567      0.1185599      1.6324968    
     27350   1.0745851      1.7510579      0.14723965     1.6038183    
     27400   1.0529358      1.7510563      0.17954956     1.5715068    
     27450   1.0208285      1.7510586      0.22747198     1.5235866    
     27500   1.0263715      1.751059       0.21919947     1.5318595    
     27550   1.0675015      1.7510556      0.15780964     1.593246     
     27600   1.0687919      1.7510563      0.15588439     1.5951719    
     27650   1.0425939      1.7510574      0.19498603     1.5560714    
     27700   1.0200714      1.7510562      0.22859962     1.5224566    
     27750   0.99179495     1.751058       0.27080404     1.480254     
     27800   0.99456634     1.751057       0.26666673     1.4843903    
     27850   1.0175439      1.7510566      0.23237227     1.5186843    
     27900   1.0376456      1.7510564      0.20237038     1.548686     
     27950   1.0431997      1.751056       0.19408044     1.5569756    
     28000   1.0346134      1.7510564      0.20689584     1.5441605    
     28050   1.0265697      1.7510582      0.21890296     1.5321553    
     28100   1.0481284      1.7510563      0.18672467     1.5643317    
     28150   1.0648654      1.7510575      0.16174591     1.5893116    
     28200   1.0706419      1.7510574      0.15312432     1.5979331    
     28250   1.0638872      1.7510587      0.16320703     1.5878517    
     28300   1.0653934      1.7510576      0.16095788     1.5900997    
     28350   1.0601238      1.751059       0.16882415     1.5822348    
     28400   1.0661927      1.7510573      0.15976475     1.5912925    
     28450   1.0607416      1.751058       0.16790116     1.5831569    
     28500   1.0547518      1.7510579      0.17684096     1.574217     
     28550   1.0616908      1.7510573      0.16648388     1.5845735    
     28600   1.0643465      1.751058       0.16252079     1.5885372    
     28650   1.0702581      1.7510574      0.15369712     1.5973602    
     28700   1.0704209      1.7510583      0.1534552      1.5976031    
     28750   1.0672436      1.7510582      0.15819711     1.5928611    
     28800   1.0609524      1.7510589      0.16758742     1.5834715    
     28850   1.0597501      1.7510584      0.1693814      1.581677     
     28900   1.062386       1.7510594      0.16544827     1.5856111    
     28950   1.0677416      1.7510563      0.15745194     1.5936044    
     29000   1.0359294      1.7510605      0.20493578     1.5461247    
     29050   1.041345       1.7510591      0.19685172     1.5542074    
     29100   1.0677253      1.7510589      0.15747885     1.5935801    
     29150   1.0872436      1.7510578      0.12834674     1.622711     
     29200   1.078824       1.7510582      0.14091343     1.6101448    
     29250   1.0586622      1.7510595      0.17100609     1.5800534    
     29300   1.0568678      1.7510598      0.17368459     1.5773752    
     29350   1.0736784      1.751057       0.148592       1.602465     
     29400   1.0629106      1.7510585      0.16466437     1.5863941    
     29450   1.0371395      1.751057       0.20312639     1.5479306    
     29500   1.0105283      1.7510613      0.24284789     1.5082134    
     29550   1.0397967      1.7510552      0.19915861     1.5518966    
     29600   1.0343107      1.7510577      0.20734905     1.5437087    
     29650   1.0212272      1.7510596      0.22687803     1.5241815    
     29700   1.0405786      1.7510577      0.1979941      1.5530636    
     29750   1.0497474      1.7510568      0.18430886     1.5667479    
     29800   1.0200548      1.7510591      0.22862725     1.5224319    
     29850   1.0027615      1.7510598      0.25443823     1.4966216    
     29900   1.0241731      1.7510584      0.22248002     1.5285783    
     29950   1.049299       1.7510571      0.18497828     1.5660788    
     30000   1.0542478      1.7510583      0.17759348     1.5734648    
     30050   1.0606325      1.7510577      0.16806369     1.582994     
     30100   1.0663668      1.7510571      0.15950464     1.5915525    
     30150   1.0594673      1.7510573      0.16980237     1.5812549    
     30200   1.0437909      1.7510572      0.19319938     1.5578579    
     30250   1.0316768      1.7510582      0.21128054     1.5397777    
     30300   1.0454338      1.7510562      0.19074617     1.56031      
     30350   1.0510614      1.7510556      0.18234652     1.5687091    
     30400   1.0343783      1.7510587      0.20724907     1.5438096    
     30450   1.0433574      1.7510575      0.19384655     1.557211     
     30500   1.0520444      1.7510567      0.18088034     1.5701763    
     30550   1.0412852      1.7510568      0.19693863     1.5541182    
     30600   1.0275468      1.751058       0.21744443     1.5336135    
     30650   1.0325703      1.7510562      0.2099451      1.5411111    
     30700   1.0323311      1.7510583      0.21030415     1.5407542    
     30750   1.052814       1.7510564      0.17973156     1.5713248    
     30800   1.0643217      1.7510552      0.16255506     1.5885002    
     30850   1.0330965      1.7510579      0.20916136     1.5418966    
     30900   1.0179262      1.751058       0.23180311     1.5192549    
     30950   1.032377       1.7510571      0.21023446     1.5408226    
     31000   1.0585819      1.7510569      0.17112342     1.5799335    
     31050   1.0787441      1.7510549      0.14102939     1.6100255    
     31100   1.0492614      1.7510573      0.18503464     1.5660227    
     31150   1.027709       1.7510589      0.21720329     1.5338556    
     31200   1.0429521      1.7510573      0.19445129     1.556606     
     31250   1.0592757      1.7510565      0.17008754     1.580969     
     31300   1.054237       1.7510557      0.17760695     1.5734488    
     31350   1.028424       1.7510575      0.2161346      1.5349229    
     31400   1.0281034      1.7510586      0.21661432     1.5344443    
     31450   1.0655971      1.7510565      0.16065283     1.5904037    
     31500   1.0837619      1.7510566      0.13354204     1.6175146    
     31550   1.0696983      1.7510583      0.15453354     1.5965247    
     31600   1.0560023      1.7510568      0.17497339     1.5760834    
     31650   1.0406565      1.7510577      0.19787791     1.5531798    
     31700   1.0382         1.7510585      0.20154505     1.5495134    
     31750   1.0580084      1.7510573      0.17197978     1.5790775    
     31800   1.0748632      1.7510574      0.14682404     1.6042333    
     31850   1.0743477      1.7510579      0.1475939      1.603464     
     31900   1.0735773      1.75106        0.14874583     1.6023142    
     31950   1.0961357      1.751058       0.11507544     1.6359826    
     32000   1.1093401      1.7510575      0.09536738     1.6556901    
     32050   1.0946158      1.7510572      0.11734318     1.6337141    
     32100   1.0568629      1.7510596      0.17369161     1.5773679    
     32150   1.0495197      1.7510582      0.18465004     1.5664081    
     32200   1.0611499      1.7510569      0.16729063     1.5837663    
     32250   1.0621825      1.7510568      0.16574948     1.5853074    
     32300   1.0546007      1.7510575      0.17706601     1.5739915    
     32350   1.0538773      1.7510571      0.17814518     1.5729119    
     32400   1.0462578      1.7510556      0.1895159      1.5615397    
     32450   1.0183488      1.7510595      0.231174       1.5198855    
     32500   1.0437285      1.751057       0.19329225     1.5577648    
     32550   1.0796516      1.7510552      0.1396752      1.61138      
     32600   1.0703883      1.7510568      0.15350233     1.5975545    
     32650   1.0495887      1.7510577      0.18454663     1.5665111    
     32700   1.0463157      1.7510568      0.18943055     1.5616262    
     32750   1.042533       1.7510545      0.19507404     1.5559805    
     32800   1.0142996      1.7510589      0.23721674     1.5138421    
     32850   1.0375283      1.7510553      0.20254433     1.548511     
     32900   1.0502931      1.7510552      0.1834928      1.5675624    
     32950   1.0258921      1.7510564      0.21991242     1.5311439    
     33000   0.994956       1.7510592      0.26608737     1.4849718    
     33050   1.0136791      1.7510561      0.23814002     1.5129161    
     33100   1.0312336      1.7510546      0.21193841     1.5391162    
     33150   1.0191108      1.7510581      0.23003513     1.5210229    
     33200   1.028447       1.7510548      0.21609773     1.5349571    
     33250   1.0136306      1.7510571      0.23821341     1.5128437    
     33300   1.015058       1.7510562      0.23608215     1.5149741    
     33350   1.0246298      1.7510576      0.22179754     1.52926      
     33400   1.0499611      1.7510553      0.18398841     1.5670669    
     33450   1.0598955      1.7510563      0.16916225     1.581894     
     33500   1.06528        1.7510568      0.16112639     1.5899304    
     33550   1.075167       1.7510566      0.14636981     1.6046868    
     33600   1.0834045      1.7510566      0.13407541     1.6169811    
     33650   1.0841313      1.7510562      0.13299017     1.618066     
     33700   1.0704032      1.7510565      0.15347982     1.5975767    
     33750   1.0578891      1.7510554      0.17215587     1.5788995    
     33800   1.0320391      1.7510566      0.21073816     1.5403184    
     33850   1.0217261      1.7510575      0.22613128     1.5249262    
     33900   1.0514756      1.7510559      0.18172847     1.5693274    
     33950   1.0763009      1.7510559      0.14467677     1.6063792    
     34000   1.0770316      1.7510568      0.14358713     1.6074697    
     34050   1.07161        1.7510571      0.15167919     1.5993779    
     34100   1.0707806      1.7510565      0.15291652     1.59814      
     34150   1.0542034      1.7510565      0.1776579      1.5733986    
     34200   1.0286239      1.7510575      0.2158363      1.5352212    
     34250   1.0200724      1.7510566      0.22859847     1.5224581    
     34300   1.0210546      1.7510569      0.22713298     1.5239239    
     34350   1.0365085      1.7510562      0.20406728     1.546989     
     34400   1.0481664      1.751055       0.18666669     1.5643883    
     34450   1.0351086      1.7510568      0.20615726     1.5448995    
     34500   1.0367808      1.751056       0.20366064     1.5473953    
     34550   1.050637       1.7510551      0.18297937     1.5680757    
     34600   1.0503605      1.7510571      0.18339411     1.567663     
     34650   1.0545729      1.7510569      0.17710687     1.57395      
     34700   1.0637146      1.7510569      0.16346282     1.5875941    
     34750   1.0686891      1.7510563      0.15603778     1.5950186    
     34800   1.0553102      1.7510576      0.17600712     1.5750505    
     34850   1.0441208      1.7510576      0.19270724     1.5583504    
     34900   1.0350647      1.7510579      0.20622387     1.544834     
     34950   1.0306381      1.7510583      0.21283093     1.5382274    
     35000   1.039445       1.7510564      0.19968471     1.5513717    
     35050   1.0301047      1.751057       0.21362568     1.5374313    
     35100   1.0168         1.7510572      0.23348313     1.5175741    
     35150   1.0188793      1.7510565      0.23037911     1.5206774    
     35200   1.0260675      1.7510568      0.21965108     1.5314057    
     35250   1.0354381      1.751057       0.20566561     1.5453914    
     35300   1.040802       1.7510576      0.19766069     1.5533969    
     35350   1.043492       1.7510572      0.19364541     1.5574117    
     35400   1.0531367      1.7510577      0.17925108     1.5718066    
     35450   1.0682363      1.7510568      0.15671412     1.5943427    
     35500   1.0645105      1.7510565      0.16227453     1.588782     
     35550   1.0410229      1.7510597      0.19733302     1.5537267    
     35600   1.0628284      1.7510574      0.16478608     1.5862714    
     35650   1.0940138      1.7510564      0.11824078     1.6328156    
     35700   1.0908115      1.7510574      0.12302123     1.6280362    
     35750   1.0692479      1.7510582      0.15520577     1.5958524    
     35800   1.0539363      1.7510582      0.17805826     1.573        
     35850   1.0506447      1.7510585      0.18297133     1.5680872    
     35900   1.0633172      1.7510578      0.16405699     1.5870008    
     35950   1.0765775      1.7510573      0.14426529     1.606792     
     36000   1.0743295      1.7510576      0.14762089     1.6034367    
     36050   1.0644337      1.7510566      0.16238931     1.5886673    
     36100   1.0443753      1.7510581      0.19232801     1.5587301    
     36150   1.0472334      1.751057       0.18806111     1.5629959    
     36200   1.0554231      1.751055       0.17583597     1.575219     
     36250   1.0336117      1.7510592      0.20839367     1.5426655    
     36300   1.0559612      1.7510567      0.17503455     1.5760221    
     36350   1.0773924      1.7510556      0.14304739     1.6080082    
     36400   1.0577413      1.7510569      0.17237796     1.5786789    
     36450   1.0389682      1.7510581      0.2003981      1.55066      
     36500   1.0498976      1.7510571      0.18408493     1.5669722    
     36550   1.0608979      1.7510572      0.16766703     1.5833901    
     36600   1.0637708      1.751057       0.16337904     1.5876779    
     36650   1.0552814      1.7510575      0.17604991     1.5750076    
     36700   1.0472824      1.7510573      0.18798837     1.563069     
     36750   1.0462853      1.751057       0.18947618     1.5615808    
     36800   1.0482107      1.7510568      0.1866023      1.5644545    
     36850   1.0513081      1.7510578      0.1819804      1.5690774    
     36900   1.0605648      1.751057       0.16816406     1.5828929    
     36950   1.0631679      1.751058       0.16428003     1.586778     
     37000   1.0659774      1.7510568      0.16008553     1.5909712    
     37050   1.0508362      1.7510574      0.18268432     1.5683731    
     37100   1.0374507      1.7510591      0.20266403     1.5483951    
     37150   1.0514456      1.7510566      0.18177409     1.5692825    
     37200   1.0483025      1.7510579      0.18646641     1.5645915    
     37250   1.0376955      1.7510585      0.20229793     1.5487606    
     37300   1.0421165      1.7510585      0.19569973     1.5553588    
     37350   1.058468       1.7510584      0.17129484     1.5797635    
     37400   1.0767302      1.7510576      0.14403779     1.6070198    
     37450   1.0754432      1.7510578      0.14595885     1.6050989    
     37500   1.0492542      1.7510572      0.18504529     1.5660119    
     37550   1.01822        1.7510615      0.23136819     1.5196933    
     37600   1.0516562      1.7510574      0.18146046     1.5695969    
     37650   1.0778352      1.7510578      0.1423887      1.6086691    
     37700   1.0683999      1.7510583      0.15647143     1.5945868    
     37750   1.0523833      1.7510598      0.18037777     1.570682     
     37800   1.0440824      1.7510568      0.1927638      1.558293     
     37850   1.0055298      1.751059       0.25030572     1.5007533    
     37900   0.99196397     1.7510597      0.27055347     1.4805062    
     37950   1.0376936      1.7510568      0.20229903     1.5487578    
     38000   1.0695365      1.7510566      0.15477344     1.5962832    
     38050   1.0595437      1.7510598      0.16969077     1.581369     
     38100   1.0557087      1.7510572      0.17541199     1.5756453    
     38150   1.0507868      1.7510582      0.18275886     1.5682993    
     38200   1.0540312      1.7510585      0.17791695     1.5731416    
     38250   1.0523366      1.7510601      0.18044774     1.5706124    
     38300   1.0713706      1.7510572      0.15203667     1.5990205    
     38350   1.0664833      1.7510578      0.15933145     1.5917263    
     38400   1.0476035      1.751059       0.18751073     1.5635483    
     38450   1.0421106      1.7510582      0.19570811     1.5553501    
     38500   1.0287148      1.7510595      0.21570265     1.5353568    
     38550   1.0325652      1.751061       0.20995741     1.5411036    
     38600   1.0774196      1.7510578      0.14300903     1.6080488    
     38650   1.0981877      1.7510574      0.11201233     1.6390451    
     38700   1.0721407      1.7510596      0.15088958     1.60017      
     38750   1.047559       1.7510601      0.18757829     1.5634819    
     38800   1.0498058      1.7510589      0.18422373     1.5668352    
     38850   1.0545088      1.7510572      0.17720279     1.5738544    
     38900   1.03457        1.7510593      0.20696363     1.5440957    
     38950   1.0333121      1.7510592      0.20884085     1.5422183    
     39000   1.051209       1.7510581      0.18212875     1.5689294    
     39050   1.0560044      1.7510587      0.17497224     1.5760865    
     39100   1.0465959      1.7510589      0.18901459     1.5620443    
     39150   1.0313341      1.7510592      0.21179304     1.5392661    
     39200   1.0357031      1.7510598      0.20527294     1.5457868    
     39250   1.0641809      1.7510587      0.1627687      1.58829      
     39300   1.0826453      1.751059       0.13521099     1.615848     
     39350   1.0847878      1.7510591      0.13201329     1.6190458    
     39400   1.068762       1.7510586      0.15593142     1.5951272    
     39450   1.048308       1.7510606      0.1864609      1.5645997    
     39500   1.0562668      1.7510592      0.17458092     1.5764782    
     39550   1.0597646      1.7510579      0.16935925     1.5816986    
     39600   1.0301633      1.7510581      0.21353937     1.5375187    
     39650   0.99170901     1.7510608      0.27093506     1.4801257    
     39700   1.0037549      1.7510587      0.25295449     1.4981042    
     39750   1.0340741      1.7510575      0.20770187     1.5433556    
     39800   1.0447016      1.7510584      0.19184119     1.5592172    
     39850   1.0408395      1.7510594      0.19760648     1.5534529    
     39900   1.0366904      1.7510579      0.20379739     1.5472605    
     39950   1.0169398      1.751059       0.23327635     1.5177826    
     40000   1.0076145      1.7510609      0.24719616     1.5038647    
     40050   1.0313601      1.7510576      0.21175266     1.539305     
     40100   1.032483       1.7510596      0.21007872     1.5409809    
     40150   1.03011        1.7510591      0.21361992     1.5374392    
     40200   1.0328407      1.7510603      0.20954554     1.5415148    
     40250   1.0538573      1.7510599      0.17817799     1.5728819    
     40300   1.0738662      1.7510572      0.14831185     1.6027453    
     40350   1.0478527      1.7510598      0.18713966     1.5639202    
     40400   1.0321426      1.7510607      0.21058784     1.5404728    
     40450   1.0454958      1.7510593      0.19065687     1.5604025    
     40500   1.0495009      1.7510577      0.18467752     1.5663801    
     40550   1.0307855      1.7510609      0.21261351     1.5384474    
     40600   1.0477127      1.7510605      0.18734933     1.5637112    
     40650   1.0760096      1.7510586      0.14511421     1.6059444    
     40700   1.0660845      1.7510602      0.15992906     1.5911311    
     40750   1.0505389      1.7510612      0.18313191     1.5679293    
     40800   1.0512133      1.7510612      0.18212538     1.5689358    
     40850   1.0619104      1.7510613      0.16615998     1.5849013    
     40900   1.070673       1.7510594      0.15307993     1.5979794    
     40950   1.049022       1.7510609      0.18539554     1.5656654    
     41000   1.0399209      1.7510605      0.19897861     1.5520819    
     41050   1.0431677      1.7510589      0.19413115     1.5569278    
     41100   1.024798       1.7510618      0.2215508      1.529511     
     41150   1.0309315      1.751059       0.21239373     1.5386652    
     41200   1.0272876      1.7510613      0.21783462     1.5332267    
     41250   1.0392899      1.7510613      0.19992121     1.5511401    
     41300   1.0628446      1.7510606      0.16476502     1.5862956    
     41350   1.0687266      1.7510627      0.15598815     1.5950745    
     41400   1.0800291      1.7510618      0.13911839     1.6119434    
     41450   1.0867945      1.7510608      0.12901999     1.6220408    
     41500   1.069704       1.7510616      0.15452841     1.5965332    
     41550   1.0453939      1.7510614      0.19081103     1.5602504    
     41600   1.0276751      1.7510633      0.21725821     1.5338051    
     41650   1.0514195      1.7510615      0.18181788     1.5692437    
     41700   1.0831203      1.7510599      0.13450285     1.616557     
     41750   1.0843532      1.7510624      0.13266524     1.6183971    
     41800   1.0839258      1.7510616      0.13330234     1.6177593    
     41850   1.0685595      1.7510616      0.15623657     1.5948251    
     41900   1.0542838      1.751064       0.17754538     1.5735186    
     41950   1.0779086      1.7510603      0.14228162     1.6087787    
     42000   1.0830314      1.7510607      0.13463632     1.6164244    
     42050   1.0580424      1.7510624      0.17193415     1.5791283    
     42100   1.0383746      1.7510629      0.20128886     1.549774     
     42150   1.0396748      1.7510614      0.19934671     1.5517147    
     42200   1.038056       1.7510615      0.20176301     1.5492985    
     42250   1.0350578      1.7510603      0.20623654     1.5448237    
     42300   1.0270716      1.7510621      0.21815779     1.5329043    
     42350   1.0405466      1.7510615      0.19804573     1.5530157    
     42400   1.0585365      1.7510619      0.17119624     1.5798657    
     42450   1.0720546      1.7510626      0.15102122     1.6000414    
     42500   1.0801587      1.7510622      0.1389253      1.6121369    
     42550   1.0686794      1.7510624      0.15605834     1.5950041    
     42600   1.0490062      1.7510634      0.18542171     1.5656417    
     42650   1.0529181      1.7510618      0.17958159     1.5714802    
     42700   1.0586364      1.7510616      0.17104673     1.5800149    
     42750   1.060315       1.7510624      0.16854231     1.5825201    
     42800   1.0674999      1.7510607      0.15781713     1.5932436    
     42850   1.0578829      1.7510625      0.17217235     1.5788902    
     42900   1.0572814      1.7510609      0.17306846     1.5779925    
     42950   1.0443957      1.7510622      0.19230165     1.5587605    
     43000   1.0345942      1.7510611      0.2069293      1.5441318    
     43050   1.0202291      1.7510621      0.22837007     1.522692     
     43100   1.028117       1.751062       0.21659742     1.5344646    
     43150   1.0633333      1.7510609      0.16403602     1.5870249    
     43200   1.082743       1.7510599      0.135066       1.6159939    
     43250   1.0651087      1.7510615      0.16138668     1.5896748    
     43300   1.0415147      1.7510621      0.19660144     1.5544606    
     43350   1.0414197      1.7510628      0.1967439      1.5543189    
     43400   1.064939       1.7510602      0.16163874     1.5894215    
     43450   1.0656844      1.75106        0.16052597     1.590534     
     43500   1.0451493      1.7510623      0.1911769      1.5598854    
     43550   1.0499206      1.7510617      0.18405521     1.5670064    
     43600   1.0639642      1.7510607      0.1630942      1.5879665    
     43650   1.0590005      1.7510611      0.17050282     1.5805583    
     43700   1.0591279      1.7510628      0.17031444     1.5807484    
     43750   1.0872884      1.7510602      0.12828224     1.622778     
     43800   1.0891024      1.7510621      0.12557671     1.6254854    
     43850   1.0835077      1.7510622      0.13392694     1.6171352    
     43900   1.0784918      1.7510614      0.14141235     1.6096491    
     43950   1.0691087      1.7510622      0.1554175      1.5956447    
     44000   1.0738598      1.7510618      0.14832599     1.6027358    
     44050   1.0816627      1.7510597      0.13667815     1.6143816    
     44100   1.052634       1.7510582      0.18000199     1.5710562    
     44150   0.98368508     1.7510606      0.28291059     1.46815      
     44200   0.96579323     1.7510627      0.30961633     1.4414464    
     44250   1.0280341      1.7510572      0.21671631     1.5343409    
     44300   1.0449173      1.7510603      0.19152121     1.5595391    
     44350   1.0327228      1.7510627      0.20972391     1.5413388    
     44400   1.0337438      1.7510609      0.2081983      1.5428626    
     44450   1.0320302      1.7510607      0.21075569     1.540305     
     44500   1.0278583      1.7510608      0.2169822      1.5340786    
     44550   1.0217753      1.7510613      0.2260617      1.5249996    
     44600   1.0234015      1.7510612      0.22363452     1.5274267    
     44650   1.0261084      1.7510617      0.21959494     1.5314667    
     44700   1.0371502      1.7510623      0.20311573     1.5479466    
     44750   1.0589475      1.751061       0.1705818      1.5804792    
     44800   1.0570097      1.7510614      0.17347446     1.577587     
     44850   1.0362851      1.751062       0.20440653     1.5466555    
     44900   1.013817       1.7510628      0.23794098     1.5131218    
     44950   1.0119206      1.7510628      0.24077135     1.5102915    
     45000   1.0337843      1.7510613      0.2081382      1.5429231    
     45050   1.0405654      1.7510616      0.19801773     1.5530439    
     45100   1.0354174      1.7510627      0.20570229     1.5453604    
     45150   1.0443611      1.7510621      0.19235312     1.558709     
     45200   1.0497357      1.7510606      0.18433004     1.5667305    
     45250   1.0266578      1.7510632      0.21877652     1.5322867    
     45300   1.025195       1.7510623      0.22095876     1.5301035    
     45350   1.0399367      1.7510622      0.19895674     1.5521055    
     45400   1.0554273      1.7510626      0.17583736     1.5752253    
     45450   1.0730114      1.7510626      0.14959306     1.6014695    
     45500   1.0821468      1.7510623      0.13595824     1.6151041    
     45550   1.0783297      1.7510634      0.14165629     1.6094071    
     45600   1.0784537      1.7510613      0.1414692      1.6095921    
     45650   1.0519006      1.7510608      0.18109909     1.5699617    
     45700   1.0046482      1.7510629      0.25162553     1.4994374    
     45750   1.0085784      1.7510623      0.24575894     1.5053033    
     45800   1.0488924      1.7510594      0.18558746     1.5654719    
     45850   1.0510782      1.7510599      0.18232568     1.5687342    
     45900   1.0301994      1.7510632      0.2134906      1.5375726    
     45950   1.0400179      1.7510605      0.19883382     1.5522267    
     46000   1.0379498      1.7510621      0.20192199     1.5491401    
     46050   1.036452       1.7510616      0.20415701     1.5469045    
     46100   1.0353211      1.7510619      0.20584518     1.5452167    
     46150   1.0362885      1.7510625      0.20440182     1.5466607    
     46200   1.0488977      1.7510623      0.18558255     1.5654798    
     46250   1.0657286      1.7510611      0.16046123     1.5905999    
     46300   1.0692078      1.7510617      0.15526906     1.5957927    
     46350   1.0652707      1.7510603      0.16114379     1.5899166    
     46400   1.0439289      1.7510638      0.19299987     1.5580639    
     46450   1.0530479      1.7510613      0.17938731     1.571674     
     46500   1.0609794      1.7510628      0.1675511      1.5835117    
     46550   1.0719526      1.7510619      0.15117263     1.5998893    
     46600   1.0781098      1.7510617      0.14198284     1.6090789    
     46650   1.0737291      1.7510611      0.14852048     1.6025406    
     46700   1.0511836      1.7510614      0.1821698      1.5688916    
     46750   1.0340289      1.7510629      0.20777467     1.5432882    
     46800   1.0510779      1.7510608      0.18232706     1.5687338    
     46850   1.0584447      1.7510603      0.17133164     1.5797287    
     46900   1.0554442      1.7510609      0.17581038     1.5752505    
     46950   1.0577021      1.7510607      0.17244023     1.5786204    
     47000   1.0504289      1.7510613      0.18329619     1.5677651    
     47050   1.050681       1.7510613      0.18291983     1.5681415    
     47100   1.0558859      1.7510604      0.17515081     1.5759096    
     47150   1.0598883      1.7510607      0.16917738     1.5818834    
     47200   1.0663448      1.7510616      0.15954203     1.5915196    
     47250   1.0759049      1.7510589      0.14527082     1.605788     
     47300   1.047969       1.7510609      0.18696713     1.5640937    
     47350   1.0286542      1.751063       0.21579649     1.5352665    
     47400   1.0606567      1.751059       0.16802889     1.5830302    
     47450   1.0771155      1.7510602      0.14346529     1.6075949    
     47500   1.079368       1.7510607      0.14010393     1.6109568    
     47550   1.0637283      1.7510591      0.16344462     1.5876145    
     47600   1.0331935      1.751061       0.2090196      1.5420414    
     47650   1.0238412      1.7510611      0.22297808     1.528083     
     47700   1.0320876      1.7510592      0.21066843     1.5403908    
     47750   1.0248971      1.7510588      0.22139996     1.5296589    
     47800   1.0216908      1.7510615      0.22618797     1.5248735    
     47850   1.0552693      1.7510564      0.17606702     1.5749894    
     47900   1.039181       1.7510588      0.20008114     1.5509777    
     47950   1.0127939      1.7510594      0.23946443     1.5115949    
     48000   1.0162973      1.7510582      0.23423449     1.5168237    
     48050   1.0312815      1.7510591      0.21187143     1.5391877    
     48100   1.0514334      1.751058       0.18179363     1.5692644    
     48150   1.0599449      1.7510584      0.16909074     1.5819677    
     48200   1.0593543      1.7510591      0.1699728      1.5810863    
     48250   1.0592476      1.7510583      0.17013119     1.5809271    
     48300   1.0426546      1.7510586      0.19489661     1.556162     
     48350   1.0301232      1.7510574      0.21359852     1.5374589    
[...]
    986950   1.0457757      1.7510487      0.19022846     1.5608202    
    987000   1.06224        1.751049       0.16565584     1.5853932    
    987050   1.0702554      1.7510482      0.15369192     1.5973563    
    987100   1.058712       1.7510497      0.17092204     1.5801276    
    987150   1.0557634      1.751049       0.17532208     1.5757269    
    987200   1.0536573      1.7510479      0.17846432     1.5725836    
    987250   1.0320272      1.7510499      0.21074938     1.5403005    
    987300   1.0326658      1.7510486      0.2097948      1.5412538    
    987350   1.0446996      1.7510484      0.19183428     1.5592141    
    987400   1.0495986      1.7510482      0.18452225     1.5665259    
    987450   1.0370855      1.7510477      0.20319762     1.5478501    
    987500   1.0142627      1.7510485      0.23726149     1.513787     
    987550   1.0158454      1.75105        0.23490072     1.5161493    
    987600   1.048599       1.7510474      0.1860134      1.565034     
    987650   1.0589451      1.7510481      0.17057247     1.5804756    
    987700   1.0522307      1.7510489      0.18059467     1.5704542    
    987750   1.0481225      1.7510478      0.18672491     1.5643229    
    987800   1.025711       1.7510475      0.22017383     1.5308737    
    987850   0.99764855     1.7510519      0.26206146     1.4889905    
    987900   1.0357029      1.751048       0.20526142     1.5457865    
    987950   1.0665365      1.751047       0.15924128     1.5918057    
    988000   1.0543254      1.7510487      0.17746802     1.5735807    
    988050   1.0385138      1.7510496      0.20106771     1.5499819    
    988100   1.0379781      1.7510479      0.20186555     1.5491823    
    988150   1.0335487      1.7510478      0.2084763      1.5425715    
    988200   1.0245704      1.7510485      0.22187711     1.5291714    
    988250   1.0258332      1.7510493      0.21999325     1.531056     
    988300   1.0438243      1.7510495      0.19314183     1.5579077    
    988350   1.0659923      1.7510491      0.16005564     1.5909935    
    988400   1.0709384      1.7510503      0.15267467     1.5983756    
    988450   1.0694902      1.7510509      0.1548367      1.5962142    
    988500   1.0814049      1.7510497      0.13705279     1.6139969    
    988550   1.0812793      1.751049       0.13723961     1.6138094    
    988600   1.0578955      1.7510509      0.17214179     1.5789091    
    988650   1.0432382      1.7510509      0.1940179      1.557033     
    988700   1.0442755      1.75105        0.19246882     1.5585812    
    988750   1.0432889      1.7510502      0.19394159     1.5571086    
    988800   1.0324427      1.751051       0.21013023     1.5409207    
    988850   1.0290572      1.7510513      0.21518343     1.5358678    
    988900   1.0386348      1.7510497      0.20088722     1.5501624    
    988950   1.0298667      1.7510504      0.21397436     1.537076     
    989000   1.0338774      1.7510511      0.20798913     1.543062     
    989050   1.0607669      1.7510502      0.16785556     1.5831946    
    989100   1.0657187      1.7510503      0.16046517     1.5905851    
    989150   1.0525405      1.7510518      0.18013512     1.5709167    
    989200   1.055898       1.7510505      0.17512267     1.5759278    
    989250   1.0552052      1.7510505      0.17615667     1.5748938    
    989300   1.0532581      1.7510512      0.17906348     1.5719878    
    989350   1.0615931      1.7510502      0.16662246     1.5844277    
    989400   1.0606995      1.7510509      0.16795692     1.583094     
    989450   1.0572062      1.7510513      0.17317101     1.5778803    
    989500   1.0617553      1.7510514      0.16638162     1.5846698    
    989550   1.0680392      1.7510493      0.15700071     1.5940486    
    989600   1.0444748      1.7510502      0.19217154     1.5588786    
    989650   1.0247757      1.7510525      0.2215747      1.5294778    
    989700   1.0568186      1.7510482      0.17374636     1.5773018    
    989750   1.0706017      1.7510504      0.15317741     1.597873     
    989800   1.0850227      1.7510497      0.13165332     1.6193963    
    989850   1.0909016      1.7510501      0.12287937     1.6281707    
    989900   1.0783717      1.75105        0.1415803      1.6094697    
    989950   1.0513492      1.7510504      0.18191167     1.5691387    
    990000   1.0245972      1.7510492      0.22183785     1.5292113    
    990050   1.0012855      1.7510511      0.2566324      1.4944187    
    990100   1.0097046      1.7510476      0.24406351     1.5069841    
    990150   1.0035341      1.7510492      0.25327456     1.4977747    
    990200   1.0078443      1.7510518      0.24684418     1.5042076    
    990250   1.0647205      1.7510483      0.16195301     1.5890953    
    990300   1.0936075      1.7510489      0.11883972     1.6322092    
    990350   1.0764431      1.7510496      0.14445828     1.6065914    
    990400   1.0617155      1.7510502      0.16643988     1.5846103    
    990450   1.0711508      1.7510499      0.15235736     1.5986925    
    990500   1.0689563      1.7510488      0.15563155     1.5954173    
    990550   1.0442627      1.7510514      0.19248935     1.558562     
    990600   1.042266       1.7510497      0.19546773     1.555582     
    990650   1.0446764      1.7510493      0.1918698      1.5591795    
    990700   1.0442539      1.75105        0.19250104     1.558549     
    990750   1.0453527      1.7510502      0.19086134     1.5601889    
    990800   1.059429       1.75105        0.16985226     1.5811978    
    990850   1.0761471      1.7510499      0.14490036     1.6061495    
    990900   1.0647924      1.7510499      0.16184718     1.5892027    
    990950   1.0445222      1.7510529      0.19210346     1.5589494    
    991000   1.0705725      1.7510512      0.15322172     1.5978295    
    991050   1.0947569      1.7510491      0.11712444     1.6339246    
    991100   1.0675347      1.751051       0.1577554      1.5932956    
    991150   1.0453104      1.7510505      0.19092475     1.5601257    
    991200   1.0395691      1.7510498      0.19949293     1.5515569    
    991250   1.0233469      1.7510508      0.22370552     1.5273453    
    991300   1.0278445      1.7510519      0.21699401     1.5340579    
    991350   1.0591424      1.751049       0.17027887     1.5807701    
    991400   1.0549247      1.7510504      0.17657533     1.5744751    
    991450   1.0474581      1.7510512      0.18771996     1.5633312    
    991500   1.0464451      1.751049       0.18922976     1.5618193    
    991550   1.0239065      1.7510532      0.22287273     1.5281805    
    991600   1.0560121      1.7510499      0.1749518      1.5760981    
    991650   1.0860217      1.7510506      0.13016322     1.6208874    
    991700   1.0885906      1.751052       0.12633047     1.6247215    
    991750   1.0902561      1.7510509      0.12384377     1.6272072    
    991800   1.0800242      1.7510518      0.13911572     1.6119361    
    991850   1.0758457      1.7510509      0.14535122     1.6056997    
    991900   1.0720542      1.7510493      0.15100849     1.6000408    
    991950   1.0435158      1.7510524      0.19360507     1.5574473    
    992000   1.0490714      1.7510475      0.18530836     1.5657391    
    992050   1.0384122      1.7510522      0.20122208     1.5498302    
    992100   1.0562005      1.7510504      0.17467122     1.5763792    
    992150   1.0742105      1.7510496      0.14779038     1.6032592    
    992200   1.0679026      1.7510506      0.15720601     1.5938446    
    992250   1.0524651      1.7510519      0.18024777     1.5708041    
    992300   1.0617338      1.7510513      0.16641364     1.5846377    
    992350   1.0835229      1.7510503      0.13389237     1.6171579    
    992400   1.0870451      1.7510502      0.12863534     1.6224149    
    992450   1.0777672      1.7510516      0.14248399     1.6085676    
    992500   1.0803381      1.7510498      0.13864516     1.6124046    
    992550   1.0701712      1.7510517      0.15382116     1.5972305    
    992600   1.0675871      1.7510491      0.15767538     1.5933737    
    992650   1.0408849      1.7510513      0.19753054     1.5535208    
    992700   1.0308769      1.7510511      0.21246739     1.5385837    
    992750   1.04252        1.7510507      0.19508964     1.5559611    
    992800   1.0488098      1.7510504      0.18570176     1.5653487    
    992850   1.0500344      1.7510508      0.18387453     1.5671763    
    992900   1.0531916      1.7510516      0.17916308     1.5718885    
    992950   1.068124       1.7510497      0.15687464     1.594175     
    993000   1.0613526      1.7510504      0.16698154     1.5840688    
    993050   1.0546283      1.7510509      0.17701821     1.5740327    
    993100   1.0621101      1.7510508      0.16585153     1.5851993    
    993150   1.0597831      1.7510514      0.1693252      1.5817262    
    993200   1.0598829      1.7510509      0.16917563     1.5818753    
    993250   1.062328       1.7510515      0.16552694     1.5855246    
    993300   1.0623747      1.7510501      0.16545587     1.5855942    
    993350   1.0492506      1.7510517      0.18504521     1.5660065    
    993400   1.0568674      1.7510506      0.17367607     1.5773745    
    993450   1.0600255      1.7510495      0.16896152     1.582088     
    993500   1.0386765      1.7510525      0.20082791     1.5502246    
    993550   1.0531365      1.7510504      0.17924409     1.5718063    
    993600   1.0770175      1.75105        0.14360131     1.6074487    
    993650   1.0808874      1.7510508      0.13782637     1.6132244    
    993700   1.0739647      1.7510503      0.14815805     1.6028923    
    993750   1.0560325      1.7510499      0.17492146     1.5761285    
    993800   1.0222428      1.7510493      0.22535182     1.5256974    
    993850   0.98921318     1.7510501      0.2746494      1.4764007    
    993900   0.98451896     1.7510505      0.281656       1.4693946    
    993950   1.0205163      1.7510489      0.22792836     1.5231205    
    994000   1.0558926      1.7510479      0.1751282      1.5759197    
    994050   1.0526985      1.7510499      0.17989738     1.5711525    
    994100   1.0470966      1.7510502      0.1882585      1.5627917    
    994150   1.03735        1.7510502      0.20280532     1.5482449    
    994200   1.0336832      1.7510508      0.20827857     1.5427722    
    994250   1.0480389      1.7510498      0.18685172     1.5641981    
    994300   1.055127       1.7510508      0.17627383     1.574777     
    994350   1.0667225      1.7510515      0.15896815     1.5920833    
    994400   1.0847855      1.7510502      0.13200778     1.6190424    
    994450   1.0843948      1.7510517      0.1325925      1.6184592    
    994500   1.0852227      1.7510506      0.13135573     1.6196948    
    994550   1.0626669      1.7510512      0.16502085     1.5860303    
    994600   1.0405947      1.7510527      0.19796512     1.5530875    
    994650   1.0433218      1.7510504      0.19389261     1.5571578    
    994700   1.0379355      1.7510521      0.20193338     1.5491188    
    994750   1.0544414      1.7510518      0.17729798     1.5737538    
    994800   1.0832069      1.7510504      0.13436415     1.6166862    
    994850   1.0791967      1.7510521      0.140351       1.6107011    
    994900   1.0744421      1.7510509      0.1474461      1.6036048    
    994950   1.058778       1.7510517      0.17082553     1.5802262    
    995000   1.0360951      1.7510533      0.20468132     1.546372     
    995050   1.0377331      1.7510519      0.20223523     1.5488166    
    995100   1.0545099      1.7510514      0.17719531     1.5738561    
    995150   1.0637101      1.7510506      0.1634633      1.5875873    
    995200   1.0429773      1.751051       0.19440742     1.5566436    
    995250   1.0240047      1.7510521      0.22272514     1.5283269    
    995300   1.0254102      1.7510514      0.22062661     1.5304248    
    995350   1.0375831      1.7510526      0.20245986     1.5485927    
    995400   1.0666589      1.7510517      0.15906333     1.5919884    
    995450   1.0810232      1.7510505      0.13762337     1.6134271    
    995500   1.0618501      1.7510534      0.16624214     1.5848112    
    995550   1.0572912      1.7510524      0.17304527     1.5780071    
    995600   1.0587329      1.7510518      0.17089305     1.5801588    
    995650   1.0514375      1.7510523      0.18178181     1.5692705    
    995700   1.0455784      1.7510518      0.19052607     1.5605258    
    995750   1.0423876      1.7510526      0.19528922     1.5557634    
    995800   1.0477425      1.7510515      0.18729577     1.5637557    
    995850   1.0459406      1.7510512      0.18998487     1.5610663    
    995900   1.0342036      1.7510497      0.2075008      1.5435489    
    995950   1.0131173      1.7510529      0.23897537     1.5120775    
    996000   1.0396897      1.7510497      0.19931279     1.5517369    
    996050   1.0571374      1.7510488      0.17327133     1.5777775    
    996100   1.0366132      1.7510518      0.20390666     1.5471451    
    996150   1.0398356      1.7510522      0.19909756     1.5519546    
    996200   1.0733347      1.7510482      0.14909618     1.601952     
    996250   1.0606755      1.7510501      0.16799189     1.5830582    
    996300   1.046759       1.7510524      0.18876459     1.5622878    
    996350   1.0758094      1.7510487      0.14540314     1.6056456    
    996400   1.0772393      1.7510494      0.14326973     1.6077796    
    996450   1.0450494      1.7510503      0.19131403     1.5597362    
    996500   1.0113467      1.7510505      0.24161553     1.509435     
    996550   1.0067955      1.7510506      0.2484084      1.5026422    
    996600   1.0318506      1.7510477      0.21101079     1.5400369    
    996650   1.0279886      1.7510495      0.21677643     1.534273     
    996700   1.0254973      1.7510502      0.22049547     1.5305547    
    996750   1.0503621      1.7510503      0.18338492     1.5676654    
    996800   1.0856927      1.7510486      0.13065232     1.6203963    
    996850   1.0927481      1.75105        0.12012345     1.6309266    
    996900   1.0788251      1.7510501      0.14090362     1.6101465    
    996950   1.0522121      1.7510521      0.18062551     1.5704266    
    997000   1.0575499      1.7510499      0.17265676     1.5783932    
    997050   1.0666024      1.7510496      0.15914564     1.591904     
    997100   1.0548651      1.7510511      0.17666489     1.5743862    
    997150   1.0521329      1.7510508      0.18074249     1.5703084    
    997200   1.0529708      1.7510496      0.17949061     1.571559     
    997250   1.0463279      1.7510508      0.18940647     1.5616444    
    997300   1.0537742      1.7510489      0.17829085     1.572758     
    997350   1.0415981      1.7510488      0.19646361     1.5545852    
    997400   1.0179885      1.751051       0.23170318     1.5193478    
    997450   1.0239003      1.7510499      0.22287869     1.5281712    
    997500   1.0483776      1.7510479      0.1863444      1.5647035    
    997550   1.0498849      1.7510502      0.18409691     1.5669533    
    997600   1.0499341      1.7510504      0.18402378     1.5670266    
    997650   1.059286       1.7510496      0.1700652      1.5809844    
    997700   1.0623897      1.7510509      0.16543421     1.5856167    
    997750   1.0789598      1.7510492      0.14070174     1.6103475    
    997800   1.079121       1.7510493      0.14046114     1.6105881    
    997850   1.0636662      1.7510512      0.16352937     1.5875218    
    997900   1.0682723      1.7510499      0.1566535      1.5943964    
    997950   1.0751638      1.7510501      0.14636803     1.604682     
    998000   1.0722968      1.7510493      0.15064632     1.600403     
    998050   1.0518741      1.7510508      0.18112868     1.5699221    
    998100   1.0518066      1.7510498      0.18122855     1.5698213    
    998150   1.0600983      1.7510497      0.16885289     1.5821968    
    998200   1.0677003      1.75105        0.15750724     1.5935427    
    998250   1.0790987      1.7510493      0.14049444     1.6105548    
    998300   1.0752859      1.7510491      0.14618481     1.6048643    
    998350   1.0600157      1.7510509      0.16897749     1.5820734    
    998400   1.0618031      1.7510499      0.16630884     1.5847411    
    998450   1.0662651      1.751049       0.15964834     1.5914007    
    998500   1.0592845      1.7510495      0.17006738     1.5809821    
    998550   1.0512866      1.7510506      0.18200542     1.5690452    
    998600   1.0604818      1.75105        0.16828081     1.5827692    
    998650   1.0759765      1.7510483      0.14515346     1.6058949    
    998700   1.0655471      1.7510488      0.16071973     1.5903291    
    998750   1.0459335      1.7510506      0.18999486     1.5610558    
    998800   1.0543732      1.751048       0.17739598     1.573652     
    998850   1.0486911      1.75105        0.18587852     1.5651714    
    998900   1.0514076      1.7510501      0.18182426     1.5692258    
    998950   1.0686557      1.7510481      0.15607948     1.5949686    
    999000   1.0682392      1.7510486      0.1567016      1.594347     
    999050   1.0608769      1.7510496      0.16769087     1.5833588    
    999100   1.0641005      1.7510484      0.16287834     1.58817      
    999150   1.0571087      1.7510479      0.17331316     1.5777347    
    999200   1.0380116      1.7510478      0.20181548     1.5492323    
    999250   1.0240208      1.7510489      0.22269786     1.528351     
    999300   1.0300926      1.7510485      0.21363527     1.5374132    
    999350   1.0516058      1.751047       0.18152536     1.5695217    
    999400   1.0598151      1.7510486      0.16927465     1.581774     
    999450   1.0608529      1.7510487      0.16772571     1.583323     
    999500   1.0576787      1.7510488      0.17246333     1.5785855    
    999550   1.0555788      1.7510473      0.17559585     1.5754514    
    999600   1.0402229      1.7510495      0.19851684     1.5525327    
    999650   1.0532279      1.7510475      0.17910487     1.5719426    
    999700   1.0728523      1.7510484      0.14981631     1.6012321    
    999750   1.0893408      1.7510475      0.1252063      1.6258412    
    999800   1.0812348      1.7510476      0.13730472     1.6137429    
    999850   1.0577224      1.7510501      0.1723995      1.5786506    
    999900   1.0613194      1.7510477      0.16702845     1.5840192    
    999950   1.0581888      1.7510482      0.17170146     1.5793467    
   1000000   1.0476051      1.7510483      0.18749776     1.5635505    
Loop time of 19.762 on 1 procs for 1000000 steps with 200 atoms

Performance: 2186011.014 tau/day, 50602.107 timesteps/s, 10.120 Matom-step/s
43.6% CPU use with 1 MPI tasks x 1 OpenMP threads

MPI task timing breakdown:
Section |  min time  |  avg time  |  max time  |%varavg| %total
---------------------------------------------------------------
Pair    | 3.6549     | 3.6549     | 3.6549     |   0.0 | 18.49
Neigh   | 0.76865    | 0.76865    | 0.76865    |   0.0 |  3.89
Comm    | 3.8893     | 3.8893     | 3.8893     |   0.0 | 19.68
Output  | 1.2642     | 1.2642     | 1.2642     |   0.0 |  6.40
Modify  | 5.4311     | 5.4311     | 5.4311     |   0.0 | 27.48
Other   |            | 4.754      |            |       | 24.06

Nlocal:            200 ave         200 max         200 min
Histogram: 1 0 0 0 0 0 0 0 0 0
Nghost:            308 ave         308 max         308 min
Histogram: 1 0 0 0 0 0 0 0 0 0
Neighs:            415 ave         415 max         415 min
Histogram: 1 0 0 0 0 0 0 0 0 0

Total # of neighbors = 415
Ave neighs/atom = 2.075
Neighbor list builds = 12638
Dangerous builds = 0
Total wall time: 0:00:20
