108
 Atoms. Timestep: 0
1 0 0 0
1 0.770308 0.770308 0
1 0.770308 0 0.770308
1 0 0.770308 0.770308
1 1.54062 0 0
1 2.31092 0.770308 0
1 2.31092 0 0.770308
1 1.54062 0.770308 0.770308
1 3.08123 0 0
1 3.85154 0.770308 0
1 3.85154 0 0.770308
1 3.08123 0.770308 0.770308
1 0 1.54062 0
1 0.770308 2.31092 0
1 0.770308 1.54062 0.770308
1 0 2.31092 0.770308
1 1.54062 1.54062 0
1 2.31092 2.31092 0
1 2.31092 1.54062 0.770308
1 1.54062 2.31092 0.770308
1 3.08123 1.54062 0
1 3.85154 2.31092 0
1 3.85154 1.54062 0.770308
1 3.08123 2.31092 0.770308
1 0 3.08123 0
1 0.770308 3.85154 0
1 0.770308 3.08123 0.770308
1 0 3.85154 0.770308
1 1.54062 3.08123 0
1 2.31092 3.85154 0
1 2.31092 3.08123 0.770308
1 1.54062 3.85154 0.770308
1 3.08123 3.08123 0
1 3.85154 3.85154 0
1 3.85154 3.08123 0.770308
1 3.08123 3.85154 0.770308
1 0 0 1.54062
1 0.770308 0.770308 1.54062
1 0.770308 0 2.31092
1 0 0.770308 2.31092
1 1.54062 0 1.54062
1 2.31092 0.770308 1.54062
1 2.31092 0 2.31092
1 1.54062 0.770308 2.31092
1 3.08123 0 1.54062
1 3.85154 0.770308 1.54062
1 3.85154 0 2.31092
1 3.08123 0.770308 2.31092
1 0 1.54062 1.54062
1 0.770308 2.31092 1.54062
1 0.770308 1.54062 2.31092
1 0 2.31092 2.31092
1 1.54062 1.54062 1.54062
1 2.31092 2.31092 1.54062
1 2.31092 1.54062 2.31092
1 1.54062 2.31092 2.31092
1 3.08123 1.54062 1.54062
1 3.85154 2.31092 1.54062
1 3.85154 1.54062 2.31092
1 3.08123 2.31092 2.31092
1 0 3.08123 1.54062
1 0.770308 3.85154 1.54062
1 0.770308 3.08123 2.31092
1 0 3.85154 2.31092
1 1.54062 3.08123 1.54062
1 2.31092 3.85154 1.54062
1 2.31092 3.08123 2.31092
1 1.54062 3.85154 2.31092
1 3.08123 3.08123 1.54062
1 3.85154 3.85154 1.54062
1 3.85154 3.08123 2.31092
1 3.08123 3.85154 2.31092
1 0 0 3.08123
1 0.770308 0.770308 3.08123
1 0.770308 0 3.85154
1 0 0.770308 3.85154
1 1.54062 0 3.08123
1 2.31092 0.770308 3.08123
1 2.31092 0 3.85154
1 1.54062 0.770308 3.85154
1 3.08123 0 3.08123
1 3.85154 0.770308 3.08123
1 3.85154 0 3.85154
1 3.08123 0.770308 3.85154
1 0 1.54062 3.08123
1 0.770308 2.31092 3.08123
1 0.770308 1.54062 3.85154
1 0 2.31092 3.85154
1 1.54062 1.54062 3.08123
1 2.31092 2.31092 3.08123
1 2.31092 1.54062 3.85154
1 1.54062 2.31092 3.85154
1 3.08123 1.54062 3.08123
1 3.85154 2.31092 3.08123
1 3.85154 1.54062 3.85154
1 3.08123 2.31092 3.85154
1 0 3.08123 3.08123
1 0.770308 3.85154 3.08123
1 0.770308 3.08123 3.85154
1 0 3.85154 3.85154
1 1.54062 3.08123 3.08123
1 2.31092 3.85154 3.08123
1 2.31092 3.08123 3.85154
1 1.54062 3.85154 3.85154
1 3.08123 3.08123 3.08123
1 3.85154 3.85154 3.08123
1 3.85154 3.08123 3.85154
1 3.08123 3.85154 3.85154
