32
 Atoms. Timestep: 0
1 0 0 0
1 0.770308 0.770308 0
1 0.770308 0 0.770308
1 0 0.770308 0.770308
1 1.54062 0 0
1 2.31092 0.770308 0
1 2.31092 0 0.770308
1 1.54062 0.770308 0.770308
1 0 1.54062 0
1 0.770308 2.31092 0
1 0.770308 1.54062 0.770308
1 0 2.31092 0.770308
1 1.54062 1.54062 0
1 2.31092 2.31092 0
1 2.31092 1.54062 0.770308
1 1.54062 2.31092 0.770308
1 0 0 1.54062
1 0.770308 0.770308 1.54062
1 0.770308 0 2.31092
1 0 0.770308 2.31092
1 1.54062 0 1.54062
1 2.31092 0.770308 1.54062
1 2.31092 0 2.31092
1 1.54062 0.770308 2.31092
1 0 1.54062 1.54062
1 0.770308 2.31092 1.54062
1 0.770308 1.54062 2.31092
1 0 2.31092 2.31092
1 1.54062 1.54062 1.54062
1 2.31092 2.31092 1.54062
1 2.31092 1.54062 2.31092
1 1.54062 2.31092 2.31092
